LAMMPS data file via write_data, version 2 Aug 2023, timestep = 5000000, units = real

4158 atoms
9 atom types
4356 bonds
8 bond types
7128 angles
12 angle types
10809 dihedrals
14 dihedral types
2904 impropers
7 improper types

-19.090054285417306 19.090054285417306 xlo xhi
-16.530405146163815 16.530405146163815 ylo yhi
-16.73308566251306 16.73308566251306 zlo zhi

Masses

1 12.01115
2 12.01115
3 12.01115
4 12.01115
5 1.00797
6 1.00797
7 1.00797
8 15.9994
9 15.9994

Pair Coeffs # lj/class2/coul/long

1 0.054 4.01
2 0.054 4.01
3 0.064 4.01
4 0.064 4.01
5 0.02 2.3
6 0.013 1.098
7 0.013 1.098
8 0.26 3.61
9 0.24 3.535

Bond Coeffs # class2

1 1.501 321.902 -521.821 572.163
2 1.101 345 -691.89 844.6
3 1.42 400.395 -835.195 1313.01
4 1.417 470.836 -627.618 1327.63
5 1.0982 372.825 -803.453 894.317
6 1.3768 428.88 -738.235 1114.97
7 0.965 532.506 -1282.9 2004.77
8 0.97 563.28 -1428.22 1902.12

Angle Coeffs # class2

1 120.05 44.7148 -22.7352 0
2 105.8 52.7061 -12.109 -9.8681
3 111 44.3234 -9.4454 0
4 111 44.3234 -9.4454 0
5 110.5 46 0 0
6 118.9 61.0226 -34.9931 0
7 117.94 35.1558 -12.4682 0
8 123.42 73.6781 -21.6787 0
9 108.19 53.125 -8.5016 0
10 107.66 39.641 -12.921 -2.4318
11 108.728 58.5446 -10.8088 -12.4006
12 103.7 49.84 -11.6 -8

BondBond Coeffs

1 12.0676 1.501 1.417
2 -9.6879 1.42 0.965
3 0 1.501 1.501
4 2.9168 1.501 1.101
5 0 1.501 1.42
6 68.2856 1.417 1.417
7 1.0795 1.417 1.0982
8 48.4754 1.417 1.3768
9 20.6577 1.3768 0.965
10 5.3316 1.101 1.101
11 23.1979 1.101 1.42
12 -9.5 0.97 0.97

BondAngle Coeffs

1 47.0579 31.0771 1.501 1.417
2 28.58 18.9277 1.42 0.965
3 0 0 1.501 1.501
4 26.4608 11.7717 1.501 1.101
5 0 0 1.501 1.42
6 28.8708 28.8708 1.417 1.417
7 20.0033 24.2183 1.417 1.0982
8 58.479 107.681 1.417 1.3768
9 53.8614 23.9224 1.3768 0.965
10 18.103 18.103 1.101 1.101
11 4.6189 55.327 1.101 1.42
12 22.35 22.35 0.97 0.97

Dihedral Coeffs # class2

1 0 0 4.4072 0 0 0
2 0 0 1.559 0 0 0
3 0 0 3 0 0 0
4 -0.2802 0 -0.0678 0 -0.0122 0
5 0 0 0 0 0.13 0
6 8.3667 0 1.1932 0 0 0
7 0 0 3.9661 0 0 0
8 0 0 4.8498 0 0 0
9 -0.69 0 0.5097 0 0.0095 0
10 -0.2801 0 -0.0678 0 -0.0122 0
11 0.1863 0 -0.4338 0 -0.2121 0
12 0 0 1.8769 0 0 0
13 0 0 1.7234 0 0 0
14 0 0 0 0 0 0

AngleAngleTorsion Coeffs

1 -14.4097 120.05 118.9
2 4.4444 120.05 117.94
3 0 120.05 123.42
4 0 111 120.05
5 0 110.5 105.8
6 0 118.9 118.9
7 -4.8141 118.9 117.94
8 -21.0247 118.9 123.42
9 -4.6072 123.42 108.19
10 -5.8888 111 120.05
11 -10.5093 108.728 105.8
12 0.3598 117.94 117.94
13 4.2296 117.94 123.42
14 0 110.5 120.05

EndBondTorsion Coeffs

1 0 0.2421 0 0 -0.6918 0 1.501 1.417
2 0 -1.797 0 0 -0.4879 0 1.501 1.0982
3 0 0 0 0 0 0 1.501 1.3768
4 0 0 0 0 0 0 1.501 1.417
5 0 0 0 0 0 0 1.501 0.965
6 -0.1185 6.3204 0 -0.1185 6.3204 0 1.417 1.417
7 0 -6.8958 0 0 -0.4669 0 1.417 1.0982
8 0 0.2655 0 0 4.8905 0 1.417 1.3768
9 0.9 -1.3456 1.19 3.4132 0.5873 -0.1323 1.417 0.965
10 1.3997 0.7756 0 -0.5835 1.122 0.3978 1.101 1.417
11 -1.7554 1.3145 0.2263 0.2493 0.6803 0 1.101 0.965
12 0 -0.689 0 0 -0.689 0 1.0982 1.0982
13 0 -1.5867 0 0 4.2641 0 1.0982 1.3768
14 0 0 0 0 0 0 1.42 1.417

MiddleBondTorsion Coeffs

1 0 9.1792 0 1.417
2 0 3.9421 0 1.417
3 0 0 0 1.417
4 0 0 0 1.501
5 0 0 0 1.42
6 27.5989 -2.312 0 1.417
7 0 -1.1521 0 1.417
8 0 4.8255 0 1.417
9 1.158 3.2697 3.5132 1.3768
10 -5.5679 1.4083 0.301 1.501
11 0 0.9241 -0.5889 1.42
12 0 4.8228 0 1.417
13 0 5.5432 0 1.417
14 0 0 0 1.501

BondBond13 Coeffs

1 2.5085 1.501 1.417
2 0.8743 1.501 1.0982
3 0 1.501 1.3768
4 0 1.501 1.417
5 0 1.501 0.965
6 53 1.417 1.417
7 -6.2741 1.417 1.0982
8 -2.2436 1.417 1.3768
9 1.159 1.417 0.965
10 -3.4826 1.101 1.417
11 0 1.101 0.965
12 -1.7077 1.0982 1.0982
13 2.0517 1.0982 1.3768
14 0 1.42 1.417

AngleTorsion Coeffs

1 0 -4.4683 0 0 3.8987 0 120.05 118.9
2 0 -0.1242 0 0 3.4601 0 120.05 117.94
3 0 0 0 0 0 0 120.05 123.42
4 0 0 0 0 0 0 111 120.05
5 0 0 0 0 0 0 110.5 105.8
6 1.9767 1.0239 0 1.9767 1.0239 0 118.9 118.9
7 0 2.5014 0 0 2.7147 0 118.9 117.94
8 0 10.0155 0 0 1.7404 0 118.9 123.42
9 -5.136 -1.0122 0 4.6852 0.023 -0.598 123.42 108.19
10 4.6266 0.1632 0.0461 0.2251 0.6548 0.1237 111 120.05
11 -3.406 1.6396 0.0737 0 -0.281 -0.5944 108.728 105.8
12 0 2.4501 0 0 2.4501 0 117.94 117.94
13 0 1.8729 0 0 2.5706 0 117.94 123.42
14 0 0 0 0 0 0 110.5 120.05

Improper Coeffs # class2

1 7.8153 0
2 4.8912 0
3 13.0421 0
4 0 0
5 0 0
6 0 0
7 0 0

AngleAngle Coeffs

1 0 0 0 120.05 118.9 120.05
2 0 0 0 118.9 117.94 117.94
3 0 0 0 118.9 123.42 123.42
4 0 0 0 111 111 111
5 2.3794 3.0118 2.3794 111 111 107.66
6 0 0 0 111 108.728 110.5
7 2.4259 2.4259 2.1283 107.66 108.728 108.728

Atoms # full

2398 1 5 0.053 -13.481837932278179 -9.43418663353985 -15.430468316786692 4 4 -6
479 1 5 0.1268 -17.560607386852233 -9.946296641620084 -13.879018674190064 5 5 -6
402 1 3 0.0265 -11.473417391035586 -11.992370538736058 -11.133358432795685 2 4 -4
401 1 3 0 -12.770750126176845 -12.373174359565272 -11.540160060489123 2 4 -4
449 1 5 0.053 -13.969493384400614 -12.19309358457537 -13.398600940145341 2 4 -4
448 1 5 0.053 -12.194521141387778 -12.421705626875262 -13.573765356225547 2 4 -4
427 1 1 -0.106 -13.077604023745781 -12.77376983600343 -12.997832460600636 2 4 -4
406 1 3 -0.1268 -13.77539462993101 -12.619010214363087 -10.631969659153786 2 4 -4
430 1 5 0.1268 -14.786962754337576 -12.73327519617741 -11.032515696603589 2 4 -4
403 1 3 0 -11.239596277782878 -11.793646802397955 -9.763701599690789 2 4 -4
405 1 3 0 -13.595017093893034 -12.413407166839669 -9.302612323950392 2 4 -4
454 1 3 -0.1268 -17.650882934547123 -10.049597335095832 -14.978666411233391 5 5 -6
3234 1 3 0 -13.302362592294864 -14.216853670049439 -13.262746798725939 2 5 -5
3259 1 5 0.1268 -12.089687037713183 -14.197043975412964 -14.98961140446149 2 5 -5
3260 1 5 0.1268 -14.412739561558716 -14.83028241135951 -11.438783943869161 2 5 -5
3239 1 3 -0.1268 -13.990880746622949 -15.115702849951928 -12.4269187756051 2 5 -5
3235 1 3 -0.1268 -12.730120071893007 -14.831318306908848 -14.363621065772323 2 5 -5
488 1 5 0.053 -16.789431250664297 -13.022587079985335 -14.391124868309296 5 5 -6
3266 1 5 0.1268 -14.284208053477556 -15.345909633621226 -9.719950945987094 2 5 -5
2375 1 3 0 -11.422518636489873 -10.293424901865087 -15.861143054289245 4 4 -6
2376 1 3 -0.1268 -10.827884833397002 -9.671732079769978 -14.735086844128979 4 4 -6
485 1 5 0.1268 -17.172784931371318 -13.365882560133517 -12.371947217002816 5 5 -6
3664 1 5 0.053 -17.061821689797377 -12.55531136232007 -10.104123849658071 2 6 -3
3236 1 3 0 -12.874629389755686 -16.183446597184297 -14.659102005524808 2 5 -5
455 1 3 0 -18.193388560426396 -8.950582873371072 -15.613703733882899 5 5 -6
470 1 1 -0.106 -17.72146056681705 -12.627609457954115 -14.855243053393197 5 5 -6
453 1 3 -0.1268 -17.623372733092147 -11.34064136700983 -15.576857660948415 5 5 -6
464 1 3 -0.1268 -18.179349819466854 -12.781674640536412 -12.460850890123748 5 5 -6
424 1 9 -0.4506 -10.483496835507479 -11.85528690856908 -12.125736198274385 2 4 -4
420 1 1 -0.106 -10.014759646649498 -11.084139866432317 -9.128976965459366 2 4 -4
413 1 3 0 -10.480770060038036 -9.687442394746085 -8.804063155132667 2 4 -4
3238 1 3 0 -14.126202362424156 -16.45584584416801 -12.681985034700679 2 5 -5
487 1 5 0.053 -17.99652662822216 -13.446435053039245 -15.450720131305616 5 5 -6
463 1 3 0 -18.69931588310993 -12.49056472583729 -13.701853321996033 5 5 -6
3649 1 5 0.1268 -18.778286514940067 -10.086793312240395 -9.828114425568742 2 6 -3
3663 1 5 0.053 -18.199874914758016 -13.871549410466478 -9.737125822447261 2 6 -3
3643 1 1 -0.106 -18.174510254907215 -12.786784697715841 -9.94929697204892 2 6 -3
3246 1 3 -0.1268 -13.617906458738108 -16.211967240729216 -9.478367901375353 2 5 -5
2394 1 5 0.1268 -11.414051180950676 -8.979039885895968 -14.103395246675065 4 4 -6
2380 1 1 -0.106 -12.858991754291972 -10.00497401181842 -16.16742150054368 4 4 -6
465 1 3 0 -18.908124448862605 -12.61198138332103 -11.288072776463046 5 5 -6
3240 1 1 -0.106 -12.210388662358646 -16.516738870024437 -15.979884075073779 2 5 -5
2399 1 5 0.053 -13.368599148979424 -11.03245075216185 -16.311632270504457 4 4 -6
444 1 6 0.4241 -9.639514470290305 -11.891725616063251 -11.564203255855961 2 4 -4
1537 1 5 0.1268 -17.956727454349974 -15.96749793911118 -13.745562279595395 4 5 -5
1538 1 5 0.1268 -17.787821145336046 -16.24383445587535 -11.252163544577282 4 5 -5
433 1 5 0.1268 -9.672129798115552 -9.038709302278377 -10.561761197658823 2 4 -4
414 1 3 -0.1268 -10.186538946188868 -8.64765321942004 -9.685315106113858 2 4 -4
404 1 3 -0.1268 -12.276485884352677 -12.146517283285263 -8.923203010301233 2 4 -4
2374 1 3 -0.1268 -10.61025658631042 -11.007024220696909 -16.681356641169288 4 4 -6
600 4 7 0.41 -9.974286411021493 -15.062820591129745 -11.143398542404928 3 5 -5
450 27 7 0.41 -13.37838998133126 -9.521496114652678 -11.644062197959444 2 5 -5
3623 1 3 -0.1268 -18.908209550159814 -10.56855353999947 -8.882237375653276 2 6 -3
3258 27 7 0.41 -14.403445798547537 -8.999357466226739 -12.532216875683936 2 6 -6
443 1 5 0.053 -15.745317891100584 -12.34754844560777 -8.832795769023427 2 4 -4
3624 1 3 0 -18.66142061569941 -11.933684754107855 -8.728316139207367 2 6 -3
428 27 8 -0.82 -13.469931596744512 -8.839787530036094 -12.288838195681793 2 5 -5
431 1 5 0.1268 -14.170363574442046 -9.826785823971141 -8.488386438186081 2 4 -4
3247 1 3 0 -12.758701098433928 -16.19330508608702 -8.411175051929503 2 5 -5
578 4 8 -0.82 -9.10888401452569 -15.306610094446174 -11.45136667490571 3 5 -5
2377 1 3 -0.1268 -9.45727464284053 -9.759627158515876 -14.470707867317097 4 4 -6
34 4 7 0.41 -9.272656234313406 -16.1383036592222 -12.030101109608694 3 5 -4
2263 1 5 0.053 -0.2591197559074345 -14.679600483479094 -14.47565251985505 2 5 -6
982 1 5 0.1268 -5.941312389832852 -16.31929312605844 -13.229497738997644 3 5 -5
962 1 3 -0.1268 -5.124903227970613 -16.49792561699411 -12.524374206596324 3 5 -5
3619 56 7 0.41 -8.190622044640511 -13.685384712441131 -11.270450628888533 4 5 -5
2373 1 3 -0.1268 -9.331370834432192 -11.279220617768827 -16.367269881944402 4 4 -6
989 1 5 0.053 -2.1886967191985924 -15.942803652663201 -8.80844574905139 3 5 -5
438 1 5 0.053 -9.155121023753992 -11.127734689115368 -9.787971441860607 2 4 -4
934 56 7 0.41 -7.816930271863724 -12.770478927558981 -12.283827434529432 2 6 -2
3597 56 8 -0.82 -7.9127855368532085 -12.691133599759262 -11.331171727276043 4 5 -5
1332 1 3 -0.1268 -2.391518725992924 -12.698533821637707 -14.403091422269396 3 4 -5
1337 1 3 0.0265 -1.8661517180759262 -11.64121119383675 -13.62424724096763 3 4 -5
960 1 3 0.0265 -3.6862153656183576 -15.46942626745921 -11.01364489331645 3 5 -5
1354 1 5 0.1268 -3.9971227666362594 -14.248892028270822 -14.734963721852875 3 4 -5
996 1 5 0.053 -5.847689391625817 -14.317479452766262 -13.181882717745452 3 5 -5
1333 1 3 -0.1268 -3.54255293392157 -13.407379493792725 -14.082944543315417 3 4 -5
1334 1 3 0 -4.1836436327035464 -13.08039148872452 -12.891092356753898 3 4 -5
1356 1 5 0.1268 -4.26727045245771 -11.746969886114437 -11.208999117979225 3 4 -5
1360 1 5 0.1268 -3.023948623823852 -9.437051510654815 -15.37665710629018 3 4 -5
2378 1 3 0.0265 -8.690488021103683 -10.588882367390628 -15.312708623347515 4 4 -6
2383 1 9 -0.4506 -7.37897785112532 -10.69318016713849 -15.182811763614293 4 4 -6
1336 1 3 0 -2.559723109401528 -11.291318012205931 -12.457785890209488 3 4 -5
1335 1 3 -0.1268 -3.692350334667461 -11.997002707659203 -12.134384679266372 3 4 -5
1344 1 1 -0.106 -2.0855417004124917 -10.254313384498968 -11.441640800324482 3 4 -5
995 1 5 0.053 -5.77470974743985 -13.553644058556202 -11.650105904739757 3 5 -5
1362 1 5 0.053 -2.739360689646464 -10.268713949504106 -10.52657121552716 3 4 -5
975 1 1 -0.106 -5.192225061724674 -14.058601558683353 -12.404497727412181 3 5 -5
972 1 9 -0.4506 -3.2105200543016394 -14.34711882146775 -10.314399052138462 3 5 -5
961 1 3 0 -4.648410979532082 -15.345742547523576 -11.930351971767248 3 5 -5
1727 1 6 0.4241 -7.398767855455937 -12.576959822290853 -15.44796097457151 3 5 -6
1708 1 9 -0.4506 -7.388259650379133 -13.41408257277201 -14.94977404700605 3 5 -6
1699 1 3 0.0265 -7.0349328245083385 -14.407346481655901 -15.87520637197912 3 5 -6
2402 1 6 0.4241 -7.193458753846173 -10.301657915925954 -14.285476392080962 4 4 -6
3303 87 8 -0.82 -7.054947052328872 -9.661976747372538 -12.317392014084916 3 6 -5
1700 1 3 -0.1268 -6.883904711736037 -15.693414123741121 -15.376291836827225 3 5 -6
3454 86 7 0.41 -6.084607470977398 -11.499389213765145 -8.883694961643172 1 6 -5
1717 1 5 0.1268 -7.142568309130388 -15.842664406318475 -14.269873019907402 3 5 -6
991 1 6 0.4241 -2.3489710021504777 -14.181797902773704 -10.742648727910645 3 5 -5
1361 1 5 0.053 -1.0136518486804462 -10.457399848977722 -11.087585480131825 3 4 -5
947 54 7 0.41 -6.115760725015138 -14.18730033625519 -9.119990680058308 2 5 -2
1595 86 7 0.41 -6.748081503099302 -11.71446003017788 -10.200767598021015 3 6 -5
1575 86 8 -0.82 -6.5283716343837455 -10.975805255589112 -9.566869898197048 3 6 -5
2395 1 5 0.1268 -9.03674770030291 -9.311829470526504 -13.551003379200807 4 4 -6
1351 1 5 0.1268 -3.824101559668531 -9.186939869438447 -13.199584015111357 3 4 -5
3321 1 5 0.053 -0.9079955064756717 -9.988840954947051 -9.034408948598717 3 4 -6
1328 1 3 -0.1268 -2.0268773420971264 -8.825926905161069 -11.99749836907278 3 4 -5
3325 87 7 0.41 -6.7006714016438185 -10.109772305376534 -11.474948372906013 3 6 -5
1343 1 3 -0.1268 -3.3166038190793987 -8.816168377015984 -16.194325577824262 3 4 -5
1580 87 7 0.41 -7.460646885495624 -8.818043681422914 -11.89878149890717 2 8 -2
1353 1 5 0.1268 -1.9544235723586993 -12.846038391822525 -15.383316738954342 3 4 -5
4002 1 5 0.1268 -0.21974784611328957 -12.481566372838525 -8.880306049470846 3 5 -5
2430 112 8 -0.82 -6.984188967984327 -15.569680430222284 -9.563720251261202 3 5 -5
3320 1 5 0.053 -1.415414800747076 -8.383461652488565 -8.43544264042368 3 4 -6
1329 1 3 -0.1268 -2.9798140317337705 -8.470732194663237 -12.987172682310772 3 4 -5
1345 1 9 -0.4506 -0.6822831276646575 -11.065340327585634 -14.106135947847115 3 4 -5
2450 112 7 0.41 -7.718457683634961 -15.770079355909767 -10.128046734204748 3 5 -5
2235 1 3 -0.1268 -0.8578008399066626 -16.49809665228272 -16.440917465365832 2 5 -6
1729 1 5 0.053 -1.8616838765871258 -10.909558821264346 -16.623662084553384 3 5 -6
1363 1 6 0.4241 -0.45341222241683354 -10.441805129192296 -13.435408105419105 3 4 -5
2264 1 5 0.053 -0.34764102964038557 -15.727634993503887 -13.184111109971324 2 5 -6
3993 33 7 0.41 -6.6511427838219745 -9.229785445508531 -8.75732543368986 4 6 -4
926 54 8 -0.82 -5.485935785904241 -13.438844731221343 -8.909951831362541 2 5 -2
3019 112 7 0.41 -7.003591037249109 -16.408141207222783 -9.065998675261218 4 6 -4
2657 54 7 0.41 -4.734079865802814 -13.621177052071934 -9.575628215357352 2 5 -2
2256 1 5 0.1268 -0.7801443264318593 -15.416217201243688 -16.72178548198963 2 5 -6
1712 1 5 0.1268 -4.614706071399295 -11.393791323404143 -16.730850096915095 3 5 -6
1790 1 3 -0.1268 -13.517251801343381 -0.9892980365552724 -16.646810568741103 1 5 -3
2401 1 6 0.4241 -12.175900952288092 -7.602439798169428 -16.0639392475354 4 4 -6
2219 1 5 0.053 -12.224923976179365 -0.2641594779277412 -9.626796649083111 2 5 -3
2196 1 3 -0.1268 -14.72624058520861 -0.22955159977297868 -8.766496302707464 2 5 -3
4038 53 8 -0.82 -18.440874627586336 -7.763729546176448 -11.127815580661188 1 4 -4
1789 1 3 0.0265 -14.753432148450806 -1.6398193623050563 -16.645843884312743 1 5 -3
1815 1 5 0.053 -17.809550538753676 -1.8634456086794344 -16.233486824508656 1 5 -3
493 1 5 0.053 -17.912811512403515 -7.69333569965074 -13.869090828059988 5 5 -6
856 1 3 -0.1268 -15.273419263515564 -5.26196451055935 -9.03967618994292 2 5 -3
473 1 1 -0.106 -18.554720173020126 -7.71485300238321 -14.768948376705206 5 5 -6
4060 53 7 0.41 -18.39963370712171 -6.8465134942882795 -11.407146328363947 1 4 -4
1104 1 3 -0.1268 -19.015358012570736 -1.5041681544309053 -10.853185468689151 4 4 -6
896 1 5 0.053 -10.217055049703054 -0.6042568288478734 -14.212071817927175 2 5 -3
1126 1 5 0.1268 -18.579784010383403 -0.5242190199726231 -10.769108208705397 4 4 -6
1102 1 3 0.0265 -18.841244868091525 -3.7648307412202797 -11.659027228830736 4 4 -6
3695 105 8 -0.82 -17.181744174598336 -4.253840019475669 -14.741648872335519 6 5 -8
3301 98 8 -0.82 -11.392633942448878 -3.9517890402263003 -16.381248096399236 3 4 -7
3717 105 7 0.41 -16.577243032905873 -4.246575830386826 -15.563007998453406 6 5 -8
1112 1 3 0.0265 -18.09252240221466 -0.6661399828156345 -13.856953871570575 4 4 -6
1111 1 3 0 -17.028358082308916 -0.7921598238590075 -12.900713134139007 4 4 -6
4103 1 6 0.4241 -11.531716296904108 -7.357707764731357 -12.705294717010958 1 5 -3
4107 1 5 0.053 -11.661016840778814 -6.002158472801934 -11.061810440393202 1 5 -3
1121 1 9 -0.4506 -18.159590421196754 -4.914823643145343 -12.219051743878374 4 4 -6
1136 1 5 0.053 -16.35286826859199 -1.7711986596356475 -11.13325609527982 4 4 -6
4083 1 9 -0.4506 -11.012662997034726 -6.9179413510397225 -13.391613930969198 1 5 -3
873 1 1 -0.106 -13.948118481385482 -3.7516585408533114 -10.771452041210704 2 5 -3
892 1 5 0.053 -14.750064072236054 -3.089608566157814 -11.086523485114183 2 5 -3
893 1 5 0.053 -13.954460141339803 -4.570528968778222 -11.505915787536981 2 5 -3
882 1 5 0.1268 -13.321622850327618 -2.248650872924019 -12.86093239250217 2 5 -3
861 1 3 0 -11.280144137467584 -1.5469695114058446 -12.450816457324173 2 5 -3
862 1 3 -0.1268 -12.476270403914452 -2.239392094804346 -12.139070145926713 2 5 -3
857 1 3 0 -12.565303104570557 -2.943073807451537 -10.989414730588836 2 5 -3
1119 1 1 -0.106 -16.922465880911425 -2.0781112603546337 -11.989797110324716 4 4 -6
1137 1 5 0.053 -16.359934516259404 -2.9481799321341455 -12.437347612552408 4 4 -6
880 1 5 0.1268 -15.789508497637176 -5.695369477439476 -9.936528387519981 2 5 -3
858 1 3 -0.1268 -11.559438534858506 -2.8973901364910066 -10.058289655483158 2 5 -3
415 1 3 0 -10.844339069979885 -7.439438381295913 -9.688581100358213 2 4 -4
4086 1 1 -0.106 -10.673359357778018 -6.2185084634555565 -10.581459467348399 1 5 -3
859 1 3 0 -10.34160721057798 -2.24385434094334 -10.261700874207538 2 5 -3
860 1 3 0.0265 -10.281068186954535 -1.5964618714147676 -11.502351664160006 2 5 -3
895 1 5 0.053 -11.841987235731956 -1.1866865396699655 -14.555169728254313 2 5 -3
875 1 1 -0.106 -11.208502827661341 -0.7195581689545545 -13.750165013220618 2 5 -3
1139 1 6 0.4241 -17.585969116571007 -4.6902342666492185 -12.971219468442163 4 4 -6
492 1 5 0.053 -18.330005190009526 -6.8502650412236505 -15.427196164221776 5 5 -6
1103 1 3 0 -18.286963186397116 -2.5364255030770284 -11.451425580532522 4 4 -6
2164 105 7 0.41 -17.890147678275962 -3.5741878792169466 -14.947135575927962 5 5 -7
881 1 5 0.1268 -11.651251610170085 -3.429037624568892 -9.145146697882414 2 5 -3
855 1 3 0 -14.302172837844605 -4.283176055269392 -9.372656916423733 2 5 -3
4108 1 5 0.053 -10.415682504578172 -5.293877038916829 -9.972055564105926 1 5 -3
4081 1 3 0.0265 -9.727446692020285 -6.652596470272144 -12.889379683697852 1 5 -3
416 1 3 -0.1268 -11.711278002180459 -7.273249310621571 -8.61621651068049 2 4 -4
1629 24 7 0.41 -9.696793532537063 -3.321210278395574 -14.63415716460366 -1 6 -2
899 1 5 0.053 -16.885784548133895 -7.176405551214939 -8.450461809672907 2 5 -3
2197 1 3 -0.1268 -16.089768853462722 -0.26013921721638766 -8.697569726713787 2 5 -3
1798 1 9 -0.4506 -14.691044343815761 -2.9956950028126403 -16.307331970264656 1 5 -3
1807 1 5 0.1268 -12.692724113412169 -1.5837376883265541 -16.42145783598767 1 5 -3
435 1 5 0.1268 -12.181100670071249 -6.310815777825457 -8.510968389046623 2 4 -4
1120 1 9 -0.4506 -19.047717422916058 -1.6245111347124848 -13.991903772031247 4 4 -6
2214 1 5 0.1268 -14.19305604344948 -1.1674459209144938 -8.442018759711209 2 5 -3
1131 1 5 0.1268 -15.15523474495442 -0.05923072278449126 -12.127509080699099 4 4 -6
1940 98 7 0.41 -12.02928072816221 -4.676195603169971 -16.18900386239903 1 5 -4
1817 1 6 0.4241 -13.801949136113675 -3.1824289419819447 -15.988974817194078 1 5 -3
2215 1 5 0.1268 -16.644275258371866 -1.1507066068996732 -8.398742080350596 2 5 -3
2591 1 3 0.0265 -0.16094312385133946 -1.9509101487973997 -15.125650768966374 3 5 -5
1347 1 1 -0.106 -4.165444490833085 -7.160836857875159 -14.640999992055246 3 4 -5
378 24 8 -0.82 -8.933247627518192 -3.387229408047446 -13.984031164738376 -1 6 -2
4093 1 5 0.1268 -4.213785979159189 -4.416688289700186 -9.769634397084692 1 5 -3
4094 1 5 0.053 -5.721217032977885 -1.8372555625807312 -14.7937183721769 1 5 -3
1338 1 3 0 -3.977559004010647 -7.584693077278219 -16.09229434703093 3 4 -5
1330 1 3 0 -2.9566209361234534 -7.341214919356954 -13.744619941005967 3 4 -5
4077 1 3 -0.1268 -8.159419179165539 -5.943207225581476 -11.246281233198776 1 5 -3
2318 1 3 0 -0.09995418946501644 -4.737570601655872 -11.211997752757929 1 5 -3
3883 1 3 -0.1268 -5.319946609650621 -0.34761994688178177 -8.622757402902945 6 5 -6
891 1 6 0.4241 -9.067183765551741 -0.2704228976658172 -10.868027540429303 2 5 -3
871 1 1 -0.106 -9.307536867701875 -2.3821855977989674 -9.227687657740804 2 5 -3
4079 1 3 -0.1268 -7.306851296954594 -6.667221681380049 -13.380469126045831 1 5 -3
4080 1 3 0 -8.646678214703588 -6.9080537053838516 -13.779981857994795 1 5 -3
4076 1 3 0 -9.476380243688698 -6.298559201885148 -11.59365494732348 1 5 -3
400 24 7 0.41 -9.355715525039852 -2.99637429005989 -13.19594370885325 -1 6 -2
4070 1 3 0.0265 -5.527833425088849 -3.6315763301252275 -12.88747989322953 1 5 -3
2625 1 6 0.4241 -1.9610330630706763 -2.3945606155312245 -15.621890431103214 3 5 -5
2609 1 1 -0.106 -0.33061219310899403 -0.9257227948914792 -12.751337406537651 3 5 -5
2628 1 5 0.053 -0.5897340294050402 -1.5705627228194725 -11.903949970438855 3 5 -5
497 29 7 0.41 -2.9459469000853282 -5.542748666548105 -9.708120136529915 5 5 -4
2359 1 5 0.053 -2.555080228194175 -1.199454096450971 -10.099229072566619 1 5 -3
2927 119 7 0.41 -4.3315197636876555 -3.855084404888723 -16.165646905068634 3 6 -5
4073 1 1 -0.106 -5.838219206301002 -1.2438034965745413 -13.842077042098278 1 5 -3
4082 1 1 -0.106 -5.617453628010955 -5.907095112254556 -11.637543975504464 1 5 -3
4100 1 5 0.1268 -8.90474452519039 -7.1347078483935125 -14.828396332387557 1 5 -3
4067 1 3 0 -3.872607753468719 -2.665113695217377 -10.81622875293568 1 5 -3
4098 1 5 0.1268 -7.947554592068601 -5.626441143085605 -10.230861354091832 1 5 -3
4069 1 3 0 -5.157513354558628 -2.252358789645635 -12.89463430426493 1 5 -3
3744 119 8 -0.82 -3.758683740983388 -3.2579505099570127 -15.648183344366544 3 6 -6
2343 1 5 0.1268 -2.021676681665138 -4.1412730816027725 -11.792091779601073 1 5 -3
2317 1 3 -0.1268 -1.2249126167914604 -3.931290581669373 -11.059853156272613 1 5 -3
3766 119 7 0.41 -4.185041464192603 -3.4373737624407603 -14.774357564403086 3 6 -6
1894 1 5 0.1268 -8.806872433953693 -5.627696573888825 -16.363201112784296 6 5 -5
4101 1 5 0.053 -4.888908902619734 -6.4793369886813075 -12.182104419778124 1 5 -3
2316 1 3 0 -1.4092767371272608 -3.085187725682264 -9.954276318089157 1 5 -3
1366 1 5 0.053 -4.599372340465518 -6.167712868446818 -14.61008947096688 3 4 -5
889 1 5 0.053 -9.07767980695383 -1.3281527587853006 -9.054271390603581 2 5 -3
4078 1 3 0 -7.084286763755381 -6.241017681225115 -12.068839639694167 1 5 -3
4097 1 6 0.4241 -7.171726882859534 -4.107181420723432 -13.786707471944315 1 5 -3
4092 1 5 0.1268 -3.881098206508984 -0.8223164042532929 -11.973989448695999 1 5 -3
872 1 9 -0.4506 -9.136419053610593 -0.8635058895717904 -11.636182135284411 2 5 -3
2339 1 1 -0.106 -2.731602007926387 -2.2622629852167684 -9.824779978177629 1 5 -3
890 1 5 0.053 -8.38438664049777 -2.8343439484863815 -9.615321914885616 2 5 -3
4075 1 9 -0.4506 -6.270011724013877 -4.04630619737658 -13.995639405596112 1 5 -3
4095 1 5 0.053 -6.903333720162845 -1.149122707298286 -13.606556103364934 1 5 -3
1352 1 5 0.1268 -1.9912120105322302 -5.627257189516188 -14.152931060591111 3 4 -5
2162 29 7 0.41 -2.291897432495098 -6.99098424114214 -9.94654255284025 4 5 -3
1365 1 5 0.053 -4.8586926951830485 -7.704651345836268 -13.994264216351388 3 4 -5
1326 1 3 0 -0.952812860629642 -6.718421565086375 -12.496161807803613 3 4 -5
2358 1 5 0.053 -3.0733485746291933 -2.2498764912321487 -8.786000365931255 1 5 -3
476 29 8 -0.82 -2.8505087171509906 -6.481528370797012 -9.372681244920841 5 5 -4
2321 1 3 0.0265 -0.36334154451605016 -3.0793210181453876 -8.97985935089137 1 5 -3
3903 1 5 0.1268 -4.524803747962919 -1.066446708370746 -8.988731707414995 6 5 -6
4102 1 5 0.053 -5.335820532524808 -6.207985307898525 -10.651125442107656 1 5 -3
4068 1 3 -0.1268 -4.16344696546536 -1.8830654950218548 -11.93192159939839 1 5 -3
2606 1 9 -0.4506 -1.3655572929418938 -1.6620885274965929 -15.510047911531164 3 5 -5
4072 1 3 -0.1268 -4.462049587961969 -3.913103511717855 -10.790781672195784 1 5 -3
4071 1 3 0 -5.213035780383606 -4.448570451219531 -11.758411718156417 1 5 -3
2629 1 5 0.053 -1.243090229383398 -0.5630410137333417 -13.191986991658416 3 5 -5
4099 1 5 0.1268 -6.475048740445812 -6.914840197097005 -14.035130502038882 1 5 -3
1327 1 3 0.0265 -1.0443587697930141 -7.871590217127661 -11.735157496764117 3 4 -5
4088 1 5 0.1268 -3.9026023337478737 -0.6642303192216428 -15.20766501124723 1 5 -3
1331 1 3 -0.1268 -1.9309842373825 -6.499479854241304 -13.510678492049859 3 4 -5
1346 1 9 -0.4506 -0.06828939426081604 -8.187612260218447 -10.794346475120907 3 4 -5
410 1 3 0.0265 -14.163340765013068 -9.651592711771013 -5.073932414358991 2 4 -4
409 1 3 -0.1268 -13.963864069605084 -9.273760351792152 -6.34249105878823 2 4 -4
408 1 3 -0.1268 -14.302008395010589 -10.102409412348164 -7.433548476874041 2 4 -4
411 1 3 0 -14.72299885602936 -10.90429164506229 -4.838092264428674 2 4 -4
3626 1 3 0 -16.599804761150526 -12.05386196151208 -3.4091793344256818 2 6 -3
3627 1 3 -0.1268 -17.518666304015653 -12.134169438137498 -4.390881623764301 2 6 -3
412 1 3 -0.1268 -14.927733980991665 -11.811379774565115 -5.854222214803727 2 4 -4
445 1 5 0.053 -14.962296880003699 -10.833303668598647 -2.678981621166633 2 4 -4
3652 1 5 0.1268 -17.202272120070454 -11.788277538689137 -5.435557674310838 2 6 -3
425 1 1 -0.106 -15.186355787993609 -11.498482581102273 -3.4913408294318593 2 4 -4
3631 1 3 -0.1268 -17.079216596940302 -12.356582288747166 -2.1487549834376356 2 6 -3
446 1 5 0.053 -14.496647071002688 -12.41052114004308 -3.1467714401949554 2 4 -4
3630 1 3 0 -18.374980116699234 -12.67525743339364 -1.8120040804501194 2 6 -3
3952 1 5 0.1268 -16.182053218471154 -9.414743759927475 -2.3926647978784583 2 5 -2
3292 1 3 0 -11.812836737367945 -14.211512181524553 -2.772320876297103 3 4 -6
3314 1 5 0.1268 -11.346611102579525 -12.423075316592817 -1.7772796609086363 3 4 -6
3651 1 5 0.1268 -16.305010303794152 -12.219389662554187 -1.4302662080592796 2 6 -3
3302 1 1 -0.106 -12.494982636609329 -14.785816094803716 -1.494322465154891 3 4 -6
3323 1 5 0.053 -12.914898972315044 -15.83368733493978 -1.7080235485239612 3 4 -6
3293 1 3 -0.1268 -11.310529624476311 -12.908758097329077 -2.7993711325463817 3 4 -6
3297 1 3 0.0265 -11.817520252503037 -14.940569157695059 -3.9840650847695365 3 4 -6
432 1 5 0.1268 -15.322117630580822 -12.819931126590694 -5.680527259724267 2 4 -4
3324 1 5 0.053 -13.383773016259294 -14.210123931056177 -1.2666266520859573 3 4 -6
419 1 9 -0.4506 -11.427856378439166 -10.276533998138731 -6.676150289587605 2 4 -4
407 1 3 0 -14.72394144375664 -11.4129876192757 -7.151257306776811 2 4 -4
3296 1 3 0 -11.249039862282714 -14.425129124256864 -5.117632126554515 3 4 -6
436 1 6 0.4241 -12.342509501529651 -10.16177681676054 -6.385925239194719 2 4 -4
3316 1 5 0.1268 -11.165723632881196 -14.921803230288837 -6.095624086223793 3 4 -6
3294 1 3 0 -10.621911183071898 -12.426609842709066 -3.9199523749954235 3 4 -6
3295 1 3 -0.1268 -10.649148745087343 -13.189162375352208 -5.0363401453686105 3 4 -6
3955 1 5 0.053 -18.152409283058525 -9.731080505769485 -3.6479030978724225 2 5 -2
3299 1 9 -0.4506 -12.341914110192604 -16.24309883878926 -4.135948391804103 3 4 -6
3317 1 5 0.053 -10.653878457750032 -10.498052251787337 -2.9561113793194416 3 4 -6
3628 1 3 0 -18.869920151770575 -12.4470189759525 -4.143563691562257 2 6 -3
3298 1 1 -0.106 -10.096455933805869 -11.014887979492507 -3.806793295552982 3 4 -6
3318 1 5 0.053 -10.363402257609794 -10.475221282283828 -4.708771039733898 3 4 -6
3267 1 5 0.1268 -12.886540648127138 -15.383865314405044 -7.667839974881174 2 5 -5
3625 1 3 0.0265 -18.95476657609936 -12.587753578682758 -7.52163942651209 2 6 -3
3319 1 6 0.4241 -13.127107058363094 -16.324730786094413 -3.566100376840623 3 4 -6
429 1 5 0.1268 -12.107671504348232 -12.037000171714146 -7.855435074136167 2 4 -4
418 1 3 0.0265 -11.235319736538063 -9.358966747035854 -7.670204730347638 2 4 -4
1558 1 3 -0.1268 -10.458227624131514 -15.743835462486095 -0.3913471519099794 2 6 -3
1559 1 3 0 -11.433149229152987 -14.77638856561894 -0.3620252797077761 2 6 -3
422 1 9 -0.4506 -13.775138700379784 -8.904978448521414 -3.932494956278484 2 4 -4
3935 1 1 -0.106 -18.60440019892933 -8.737478806265475 -3.335405780086722 2 5 -2
441 1 6 0.4241 -13.023834314949212 -8.337712600564865 -4.1959173083285926 2 4 -4
3633 1 9 -0.4506 -18.49772751899624 -13.888544548718807 -7.340055598610052 2 6 -3
442 1 5 0.053 -14.804077914612108 -13.453603587358725 -7.826655782107675 2 4 -4
423 1 1 -0.106 -14.77872094494737 -12.463930148924222 -8.243480192674857 2 4 -4
3946 1 5 0.1268 -16.775430919014802 -8.598040408952151 -5.410519243406426 2 5 -2
3655 1 6 0.4241 -18.892686654772255 -14.127296822482743 -6.466610430031356 2 6 -3
1000 58 7 0.41 -15.913785909752606 -16.46907156413141 -3.5070277585180154 3 5 -5
2520 113 8 -0.82 -18.09365202814744 -15.746561766397937 -3.7148024920160534 4 5 -5
3660 1 5 0.053 -18.910162990687283 -14.02646473833844 -0.13546795620787933 2 6 -3
3315 1 5 0.1268 -10.28944676205495 -12.627027617224204 -5.953770101931996 3 4 -6
437 1 5 0.053 -9.68069792849197 -11.558980499206896 -8.211486885733306 2 4 -4
3932 1 3 -0.1268 -16.522298615059622 -8.526423205821244 -1.9044516129135225 2 5 -2
2540 113 7 0.41 -18.269419679591596 -14.788215868461611 -3.593029373720693 4 5 -5
3641 1 1 -0.106 -18.754815610814642 -12.917190147043597 -0.3336873923716368 2 6 -3