LAMMPS data file via write_data, version 2 Aug 2023, timestep = 5000000, units = real

4158 atoms
9 atom types
4356 bonds
8 bond types
7128 angles
12 angle types
10815 dihedrals
14 dihedral types
2904 impropers
7 improper types

-16.514017041227696 16.514017041227696 xlo xhi
-18.930998116835426 18.930998116835426 ylo yhi
-16.725149016274408 16.725149016274408 zlo zhi

Masses

1 12.01115
2 12.01115
3 12.01115
4 12.01115
5 1.00797
6 1.00797
7 1.00797
8 15.9994
9 15.9994

Pair Coeffs # lj/class2/coul/long

1 0.054 4.01
2 0.054 4.01
3 0.064 4.01
4 0.064 4.01
5 0.02 2.3
6 0.013 1.098
7 0.013 1.098
8 0.26 3.61
9 0.24 3.535

Bond Coeffs # class2

1 1.501 321.902 -521.821 572.163
2 1.101 345 -691.89 844.6
3 1.42 400.395 -835.195 1313.01
4 1.417 470.836 -627.618 1327.63
5 1.0982 372.825 -803.453 894.317
6 1.3768 428.88 -738.235 1114.97
7 0.965 532.506 -1282.9 2004.77
8 0.97 563.28 -1428.22 1902.12

Angle Coeffs # class2

1 120.05 44.7148 -22.7352 0
2 105.8 52.7061 -12.109 -9.8681
3 111 44.3234 -9.4454 0
4 111 44.3234 -9.4454 0
5 110.5 46 0 0
6 118.9 61.0226 -34.9931 0
7 117.94 35.1558 -12.4682 0
8 123.42 73.6781 -21.6787 0
9 108.19 53.125 -8.5016 0
10 107.66 39.641 -12.921 -2.4318
11 108.728 58.5446 -10.8088 -12.4006
12 103.7 49.84 -11.6 -8

BondBond Coeffs

1 12.0676 1.501 1.417
2 -9.6879 1.42 0.965
3 0 1.501 1.501
4 2.9168 1.501 1.101
5 0 1.501 1.42
6 68.2856 1.417 1.417
7 1.0795 1.417 1.0982
8 48.4754 1.417 1.3768
9 20.6577 1.3768 0.965
10 5.3316 1.101 1.101
11 23.1979 1.101 1.42
12 -9.5 0.97 0.97

BondAngle Coeffs

1 47.0579 31.0771 1.501 1.417
2 28.58 18.9277 1.42 0.965
3 0 0 1.501 1.501
4 26.4608 11.7717 1.501 1.101
5 0 0 1.501 1.42
6 28.8708 28.8708 1.417 1.417
7 20.0033 24.2183 1.417 1.0982
8 58.479 107.681 1.417 1.3768
9 53.8614 23.9224 1.3768 0.965
10 18.103 18.103 1.101 1.101
11 4.6189 55.327 1.101 1.42
12 22.35 22.35 0.97 0.97

Dihedral Coeffs # class2

1 0 0 4.4072 0 0 0
2 0 0 1.559 0 0 0
3 0 0 3 0 0 0
4 -0.2802 0 -0.0678 0 -0.0122 0
5 0 0 0 0 0.13 0
6 8.3667 0 1.1932 0 0 0
7 0 0 3.9661 0 0 0
8 0 0 4.8498 0 0 0
9 -0.69 0 0.5097 0 0.0095 0
10 -0.2801 0 -0.0678 0 -0.0122 0
11 0.1863 0 -0.4338 0 -0.2121 0
12 0 0 1.8769 0 0 0
13 0 0 1.7234 0 0 0
14 0 0 0 0 0 0

AngleAngleTorsion Coeffs

1 -14.4097 120.05 118.9
2 4.4444 120.05 117.94
3 0 120.05 123.42
4 0 111 120.05
5 0 110.5 105.8
6 0 118.9 118.9
7 -4.8141 118.9 117.94
8 -21.0247 118.9 123.42
9 -4.6072 123.42 108.19
10 -5.8888 111 120.05
11 -10.5093 108.728 105.8
12 0.3598 117.94 117.94
13 4.2296 117.94 123.42
14 0 110.5 120.05

EndBondTorsion Coeffs

1 0 0.2421 0 0 -0.6918 0 1.501 1.417
2 0 -1.797 0 0 -0.4879 0 1.501 1.0982
3 0 0 0 0 0 0 1.501 1.3768
4 0 0 0 0 0 0 1.501 1.417
5 0 0 0 0 0 0 1.501 0.965
6 -0.1185 6.3204 0 -0.1185 6.3204 0 1.417 1.417
7 0 -6.8958 0 0 -0.4669 0 1.417 1.0982
8 0 0.2655 0 0 4.8905 0 1.417 1.3768
9 0.9 -1.3456 1.19 3.4132 0.5873 -0.1323 1.417 0.965
10 1.3997 0.7756 0 -0.5835 1.122 0.3978 1.101 1.417
11 -1.7554 1.3145 0.2263 0.2493 0.6803 0 1.101 0.965
12 0 -0.689 0 0 -0.689 0 1.0982 1.0982
13 0 -1.5867 0 0 4.2641 0 1.0982 1.3768
14 0 0 0 0 0 0 1.42 1.417

MiddleBondTorsion Coeffs

1 0 9.1792 0 1.417
2 0 3.9421 0 1.417
3 0 0 0 1.417
4 0 0 0 1.501
5 0 0 0 1.42
6 27.5989 -2.312 0 1.417
7 0 -1.1521 0 1.417
8 0 4.8255 0 1.417
9 1.158 3.2697 3.5132 1.3768
10 -5.5679 1.4083 0.301 1.501
11 0 0.9241 -0.5889 1.42
12 0 4.8228 0 1.417
13 0 5.5432 0 1.417
14 0 0 0 1.501

BondBond13 Coeffs

1 2.5085 1.501 1.417
2 0.8743 1.501 1.0982
3 0 1.501 1.3768
4 0 1.501 1.417
5 0 1.501 0.965
6 53 1.417 1.417
7 -6.2741 1.417 1.0982
8 -2.2436 1.417 1.3768
9 1.159 1.417 0.965
10 -3.4826 1.101 1.417
11 0 1.101 0.965
12 -1.7077 1.0982 1.0982
13 2.0517 1.0982 1.3768
14 0 1.42 1.417

AngleTorsion Coeffs

1 0 -4.4683 0 0 3.8987 0 120.05 118.9
2 0 -0.1242 0 0 3.4601 0 120.05 117.94
3 0 0 0 0 0 0 120.05 123.42
4 0 0 0 0 0 0 111 120.05
5 0 0 0 0 0 0 110.5 105.8
6 1.9767 1.0239 0 1.9767 1.0239 0 118.9 118.9
7 0 2.5014 0 0 2.7147 0 118.9 117.94
8 0 10.0155 0 0 1.7404 0 118.9 123.42
9 -5.136 -1.0122 0 4.6852 0.023 -0.598 123.42 108.19
10 4.6266 0.1632 0.0461 0.2251 0.6548 0.1237 111 120.05
11 -3.406 1.6396 0.0737 0 -0.281 -0.5944 108.728 105.8
12 0 2.4501 0 0 2.4501 0 117.94 117.94
13 0 1.8729 0 0 2.5706 0 117.94 123.42
14 0 0 0 0 0 0 110.5 120.05

Improper Coeffs # class2

1 7.8153 0
2 4.8912 0
3 13.0421 0
4 0 0
5 0 0
6 0 0
7 0 0

AngleAngle Coeffs

1 0 0 0 120.05 118.9 120.05
2 0 0 0 118.9 117.94 117.94
3 0 0 0 118.9 123.42 123.42
4 0 0 0 111 111 111
5 2.3794 3.0118 2.3794 111 111 107.66
6 0 0 0 111 108.728 110.5
7 2.4259 2.4259 2.1283 107.66 108.728 108.728

Atoms # full

3339 1 9 -0.4506 -14.474998951512092 -13.714904291955124 -13.577463939990842 -1 7 -13
3361 1 6 0.4241 -13.867893780512041 -13.233469772152908 -14.184451393743094 -1 7 -13
3359 1 5 0.053 -12.225714374260154 -13.060732747707153 -13.961863397229113 -1 7 -13
3358 1 5 0.1268 -13.001085270545547 -10.400722388050317 -13.34305324912468 -1 7 -13
3333 1 3 -0.1268 -11.868032817887723 -10.297472411605854 -13.167211111857487 -1 7 -13
3338 1 1 -0.106 -11.879879645997125 -12.852770399324744 -12.956803617714087 -1 7 -13
3334 1 3 0 -11.141490617497269 -11.508714221976838 -12.940920345235602 -1 7 -13
3331 1 3 0.0265 -14.183894631517898 -13.42769402612095 -12.236161007458719 -1 7 -13
3326 1 3 -0.1268 -12.929386846087397 -12.985559874384194 -11.89135170068666 -1 7 -13
3330 1 3 0 -15.258333076828642 -13.500418994207132 -11.290015975253272 -1 7 -13
3360 1 5 0.053 -11.157420012491425 -13.663507589310786 -12.729456533637428 -1 7 -13
289 1 5 0.053 -13.353499313067962 -16.590354151456275 -13.365741893042296 0 7 -14
3327 1 3 -0.1268 -12.737443657910097 -12.603176143344243 -10.56219448032914 -1 7 -13
3329 1 3 -0.1268 -14.954087993131633 -13.229296089450273 -9.991027329395159 -1 7 -13
261 1 3 0 -9.459967858185871 -16.97282095302161 -11.28493846678996 0 7 -14
260 1 3 0.0265 -10.85948673099728 -16.816851931711636 -11.20837082438031 0 7 -14
3353 1 5 0.1268 -11.769771295695298 -12.244110933337595 -10.357079032468894 -1 7 -13
3328 1 3 0 -13.695141779998679 -12.752901658917862 -9.568332999829053 -1 7 -13
272 1 9 -0.4506 -11.495184633199518 -16.05418149151471 -10.211334071014692 0 7 -14
3335 1 3 0.0265 -9.796648036208389 -11.394445891233799 -12.592680412810164 -1 7 -13
286 1 6 0.4241 -13.846615710579236 -17.59454550574414 -15.111064219046689 0 7 -14
259 1 3 -0.1268 -11.600330460298725 -17.353977452468776 -12.270074709273906 0 7 -14
271 1 1 -0.106 -13.129167315157275 -17.304617584967236 -12.530131759053898 0 7 -14
1212 1 1 -0.106 -15.135841889222652 -11.022896675439368 -15.834898300528208 0 7 -14
291 1 6 0.4241 -12.319019687194448 -15.770132639615813 -10.617615522929896 0 7 -14
290 1 5 0.053 -13.547652386709787 -16.956286550161828 -11.602876335991866 0 7 -14
258 1 3 -0.1268 -10.866315200208343 -17.95011681312969 -13.315293827101156 0 7 -14
257 1 3 0 -9.557491742656058 -18.221729440247973 -13.357987282523142 0 7 -14
1443 1 5 0.1268 -9.950810817688886 -13.643578443755402 -14.797113385802154 -2 5 -14
3336 1 3 0 -9.212088374733352 -10.122320253076298 -12.570193697018453 -1 7 -13
1422 1 3 -0.1268 -9.35932404251477 -14.02145357060404 -15.673644711356387 -2 5 -14
1230 1 5 0.053 -14.395119950106576 -10.765292834013945 -14.964932972974278 0 7 -14
3354 1 5 0.1268 -13.554240633396837 -12.478057394172582 -8.523995568199386 -1 7 -13
262 1 3 -0.1268 -8.853834258482195 -17.773568066863955 -12.214794777479511 0 7 -14
216 1 3 -0.1268 -9.382544277403287 -14.499336106775013 -8.842415136000916 0 7 -14
3355 1 5 0.1268 -15.776963187798668 -13.288429730590419 -9.259656844657648 -1 7 -13
292 1 5 0.053 -8.593997273382278 -18.563160136085102 -15.18045965665229 0 7 -14
281 1 5 0.1268 -11.363515949388297 -18.159060727910926 -14.306865341742965 0 7 -14
3742 106 8 -0.82 -14.789501557273542 -16.07690625350918 -15.377274028158576 0 7 -15
3763 106 7 0.41 -14.254436355162554 -15.38644933386716 -15.850460123541874 0 7 -15
269 1 9 -0.4506 -13.591728754421505 -18.486562755349393 -15.303563070327622 0 7 -14
3340 1 9 -0.4506 -8.966026017968572 -12.483996632776794 -12.28004869677898 -1 7 -13
2522 106 7 0.41 -15.531310691415289 -15.584297092237197 -14.915211562569086 1 7 -15
943 1 5 0.053 -15.468265940991515 -17.21743124475703 -8.964119546759704 0 7 -13
295 1 5 0.053 -8.420614451774169 -17.138080897855144 -9.337847489569288 0 7 -14
275 1 1 -0.106 -8.45087677929339 -16.399010102262118 -10.238134665957725 0 7 -14
215 1 3 0 -8.42321441837999 -14.991227595185856 -9.698957042779027 0 7 -14
218 1 3 0.0265 -8.443959849891005 -12.276949995564133 -8.956714165144074 0 7 -14
1231 1 5 0.053 -14.588884067747335 -11.899111304370308 -16.303628076746413 0 7 -14
1094 1 6 0.4241 -16.29366134995902 -17.336636676853193 -16.23928557700641 0 7 -14
2025 56 8 -0.82 -13.090603286454495 -14.082326602960162 -16.66115133588033 2 8 -14
1423 1 3 -0.1268 -8.457727997112794 -14.929576467352048 -15.238824550139658 -2 5 -14
1444 1 5 0.1268 -8.519785004679708 -15.204634745529162 -14.190518583445776 -2 5 -14
3362 1 6 0.4241 -9.495016280479089 -13.065881024047357 -11.655003921428282 -1 7 -13
267 1 3 0 -13.577822581463098 -18.774378188213337 -12.964211538107078 0 7 -14
236 1 6 0.4241 -9.32833872354831 -10.560441898767642 -8.979125724857731 0 7 -14
219 1 9 -0.4506 -8.461462474311688 -10.883378682551543 -8.781864615285437 0 7 -14
233 1 5 0.1268 -10.164025795951247 -15.18099156853489 -8.485080308587804 0 7 -14
1216 1 5 0.1268 -16.477830033780094 -13.148492158653244 -16.63032529872173 0 7 -14
1195 1 3 0 -16.476310053148584 -11.41085892824359 -15.353047335488542 0 7 -14
217 1 3 0 -9.436830476835114 -13.1437934593393 -8.477680181314787 0 7 -14
942 1 5 0.053 -14.542061745673028 -18.667238746870122 -8.450601821668974 0 7 -13
3151 1 1 -0.106 -0.8599156060189923 -11.73856511777165 -9.301153668882261 -1 6 -14
282 1 5 0.1268 -7.77454762728428 -17.950250257005166 -12.05616137543434 0 7 -14
3170 1 5 0.053 -1.7100985692718833 -11.053392223678074 -9.503641332878232 -1 6 -14
147 8 7 0.41 -4.507854829628863 -18.183404657926893 -12.029804986145407 -1 7 -13
296 1 5 0.053 -7.443069951257776 -16.566588478090758 -10.680270116195672 0 7 -14
220 1 1 -0.106 -5.9298332051588485 -12.16108399770211 -9.686456897343998 0 7 -14
237 1 5 0.053 -6.026255426067522 -11.259006985330512 -10.226395755015643 0 7 -14
3155 1 1 -0.106 -3.9072615924681457 -14.021704404435063 -12.587772250276556 -1 6 -14
2313 1 5 0.053 -7.296911980564566 -17.230043973512615 -14.979940486570857 -1 4 -15
2298 1 5 0.1268 -6.204209558187575 -14.953940944231494 -13.815444118815055 -1 4 -15
3345 1 3 -0.1268 -4.679333277887178 -11.096110491087035 -14.081020466395504 -1 7 -13
2275 1 3 0 -2.929156854296437 -16.664269571030196 -15.158120885069936 -1 4 -15
2271 1 3 0 -5.37831096134706 -16.294529801160824 -15.249891130508367 -1 4 -15
2276 1 3 0.0265 -4.1855822448705915 -16.99166127623867 -15.64376697233128 -1 4 -15
3341 1 3 0 -6.282711041213602 -10.475242046752255 -15.751780523061885 -1 7 -13
3346 1 3 0.0265 -4.961961517218498 -10.836189924282921 -15.392364207710084 -1 7 -13
2272 1 3 -0.1268 -5.279311945558833 -15.382692503448986 -14.193034932935284 -1 4 -15
2274 1 3 -0.1268 -2.8284345450911434 -15.693821887087092 -14.184354755161424 -1 4 -15
3365 1 5 0.1268 -3.6421048874758295 -11.399080403935342 -13.909985902633077 -1 7 -13
2273 1 3 0 -4.000392231123342 -15.056194575554429 -13.696349405397646 -1 4 -15
2296 1 5 0.1268 -1.8789070570450228 -15.457669050504222 -13.668346079245108 -1 4 -15
3176 1 5 0.053 -3.707566513339419 -13.053875327618902 -13.012785532260857 -1 6 -14
3177 1 5 0.053 -4.960481599624417 -14.10117535109499 -12.20654815414579 -1 6 -14
3152 1 9 -0.4506 -3.1005906617855867 -16.647420093545975 -11.16726728421892 -1 6 -14
3145 1 3 0 -2.9108494199120756 -14.181908967601572 -11.46592313745181 -1 6 -14
3150 1 3 0.0265 -2.5829001127862945 -15.421655781400798 -10.849094213377217 -1 6 -14
235 1 5 0.1268 -6.4129853807610235 -14.729867535720256 -10.380620285070332 0 7 -14
3167 1 5 0.1268 -2.632101334925009 -12.058288934387981 -11.305754376296441 -1 6 -14
3146 1 3 -0.1268 -2.271998776034737 -13.041077362625387 -10.956852353894465 -1 6 -14
238 1 5 0.053 -5.171828182968648 -12.82659890397413 -10.203498321038241 0 7 -14
214 1 3 -0.1268 -7.325422737659959 -14.175381606972202 -10.009822421163545 0 7 -14
3147 1 3 0 -1.3115084410926396 -13.033032466243982 -9.954646469259652 -1 6 -14
3149 1 3 -0.1268 -1.5910535405319859 -15.401331101902134 -9.898958095166087 -1 6 -14
213 1 3 0 -7.313631739028269 -12.874593433263247 -9.565682020248854 0 7 -14
2289 1 1 -0.106 -1.6505428473527477 -17.42872114249525 -15.616537027457305 -1 4 -15
3172 1 6 0.4241 -2.7528010521070723 -17.29213949114708 -10.537639795877062 -1 6 -14
3344 1 3 -0.1268 -5.515694747963199 -10.725879980473145 -13.058021482739406 -1 7 -13
2279 1 3 0 -0.9903758102116544 -18.203350014408358 -14.43948371838878 -1 4 -15
224 1 9 -0.4506 -3.9622789502239186 -9.988582724042407 -9.01827072089091 0 7 -14
3367 1 5 0.053 -7.432101594275975 -10.415570834848742 -11.297664087621857 -1 7 -13
3343 1 3 0 -6.824621407035595 -10.27110168151144 -13.359625669597268 -1 7 -13
3364 1 5 0.1268 -5.216930261748027 -11.017929657802604 -12.073779826844863 -1 7 -13
2294 1 1 -0.106 -6.772214983198882 -16.650133060721664 -15.691332149555423 -1 4 -15
3348 1 9 -0.4506 -3.96206272807591 -11.009772172270301 -16.24982669735252 -1 7 -13
126 8 8 -0.82 -5.052745462131497 -18.26653362653833 -12.836041925603588 -1 7 -13
2307 1 5 0.053 -1.8244421589056383 -18.17704900008938 -16.411705658348815 -1 4 -15
2306 1 5 0.053 -0.9518058570653736 -16.6709612838054 -15.948233609180786 -1 4 -15
1424 1 3 0 -7.617107120329175 -15.493309910927266 -16.149539711172064 -2 5 -14
3342 1 3 -0.1268 -7.178836779568275 -10.156829386485969 -14.70419894271075 -1 7 -13
3756 1 5 0.1268 -1.2752554621996026 -10.575625468757808 -12.641400493658406 -1 6 -14
3064 8 7 0.41 -4.985222490169479 -17.366214061108984 -13.167440951807576 -2 7 -13
3148 1 3 -0.1268 -0.9698590395040299 -14.276511745733377 -9.469846272097357 -1 6 -14
3169 1 5 0.1268 -1.318182289785069 -16.392943475536097 -9.429616169445687 -1 6 -14
3347 1 1 -0.106 -7.7103022593083494 -9.886316044271329 -12.24075254637355 -1 7 -13
2278 1 3 -0.1268 -0.08678430473414522 -17.547911416870257 -13.595957961967779 -1 4 -15
3736 1 3 -0.1268 -0.41565668556887303 -10.839299936378918 -13.274580333426302 -1 6 -14
28 3 8 -0.82 -2.0135288856608806 -18.75700963295779 -9.461242501226174 0 5 -13
3363 1 5 0.1268 -8.223690637324019 -9.901582856027861 -14.838586993712493 -1 7 -13
2310 1 6 0.4241 -4.779507862095416 -18.628792166153495 -16.278845363115146 -1 4 -15
3168 1 5 0.1268 -0.13700292064134345 -14.317215013851245 -8.765716561173551 -1 6 -14
2291 1 9 -0.4506 -4.320380230277991 -17.89308455393298 -16.720512592816863 -1 4 -15
3735 1 3 0 -0.06611833111113796 -9.969082450028326 -14.301039346501454 -1 6 -14
2314 1 5 0.053 -6.587291712474903 -17.25654555457362 -16.53423438042427 -1 4 -15
619 1 9 -0.4506 -11.558192157087008 -9.199405017070417 -8.608164321578705 -1 7 -13
3332 1 3 0 -11.258393080083986 -9.07567404285773 -13.256605206173058 -1 7 -13
636 1 6 0.4241 -11.918318984703305 -8.821511582751516 -9.401635283542616 -1 7 -13
639 1 5 0.053 -14.787471338928762 -9.265438569678938 -9.279191761134356 -1 7 -13
2493 1 5 0.053 -11.687184244730343 -1.4907939861703738 -16.17075504951002 0 6 -14
641 1 6 0.4241 -15.08940324023338 -8.87542213302493 -11.40813684692906 -1 7 -13
622 1 9 -0.4506 -14.227542740728012 -8.932964446413768 -11.88000401416927 -1 7 -13
1208 1 3 -0.1268 -14.342056143554275 -8.72143114591687 -16.443258971309955 0 7 -14
2352 1 5 0.053 -15.99752187481124 -2.964333399616663 -14.015497345754644 1 3 -14
3069 1 5 0.1268 -10.964076774028692 -0.14410193529866433 -9.590317297460505 -2 6 -13
640 1 5 0.053 -15.271443357080498 -7.581234001565933 -8.821044001959118 -1 7 -13
3337 1 3 -0.1268 -9.875144230831513 -9.017846662418247 -12.944292016960565 -1 7 -13
645 1 5 0.053 -12.998947718148418 -7.92658188392352 -14.112376317882244 -1 7 -13
3435 1 3 -0.1268 -16.412011745237695 -2.6183005723908366 -9.101236408370028 -1 7 -13
1225 1 5 0.1268 -13.888539884537312 -8.686097712933197 -15.448873197553123 0 7 -14
621 1 1 -0.106 -14.374983765896271 -8.281539664986106 -8.916937945384507 -1 7 -13
610 1 3 0.0265 -13.385674329080183 -7.97680501433989 -11.288796843098144 -1 7 -13
625 1 1 -0.106 -12.056239994397831 -7.838933948180545 -13.475357271595461 -1 7 -13
2334 1 1 -0.106 -15.74456011152142 -2.257142690300576 -14.833068761408704 1 3 -14
3357 1 5 0.1268 -9.270673918162442 -8.044060394378544 -12.95812295519298 -1 7 -13
2451 1 3 0 -9.733118354257185 -0.80734648160945 -15.925615687096021 0 6 -14
2728 1 3 -0.1268 -10.611678105608679 -4.049882218807614 -16.318626296089594 0 6 -14
2729 1 3 0 -10.035970937289333 -5.359272657992035 -16.16463764706976 0 6 -14
608 1 3 -0.1268 -12.7221454855537 -6.5177802436868095 -9.57254546217295 -1 7 -13
612 1 3 -0.1268 -11.51969707378305 -6.404901425712849 -11.57434666368199 -1 7 -13
2336 1 9 -0.4506 -14.684109660130908 -5.047604245609387 -14.60702052866975 1 3 -14
2494 1 5 0.053 -11.254222086752256 -1.3331393436602994 -14.479789770021265 0 6 -14
2355 1 6 0.4241 -14.430194320703658 -4.367294329742668 -13.871455929376868 1 3 -14
646 1 5 0.053 -11.426754650353544 -7.137804278724827 -14.00651202878159 -1 7 -13
278 16 8 -0.82 -12.739518087887031 -3.634374776522817 -13.088701301620567 0 6 -15
2727 1 3 0 -10.37499297331247 -3.0803777065148648 -15.357341710915462 0 6 -14
611 1 3 0 -12.345530803153249 -7.417081709548361 -12.089462907048038 -1 7 -13
632 1 5 0.1268 -10.591961662918106 -6.0414587094482535 -12.080775340871035 -1 7 -13
607 1 3 0 -11.636723051371437 -5.945365631440449 -10.283138546261462 -1 7 -13
609 1 3 -0.1268 -13.468552658153493 -7.57004136868726 -10.018359951586486 -1 7 -13
642 1 5 0.053 -10.023174749700559 -4.40333075932703 -10.43235297799838 -1 7 -13
2474 1 1 -0.106 -10.866163641097767 -1.7103321071380897 -15.480802282777162 0 6 -14
300 16 7 0.41 -12.084378288166178 -3.8014396294936343 -13.784204961718164 0 6 -15
2351 1 5 0.053 -14.878883347801297 -1.6008553919437105 -14.44727137536649 1 3 -14
623 1 1 -0.106 -10.615179237680032 -4.964658252421879 -9.673275028712279 -1 7 -13
2732 1 3 0.0265 -9.610485654179005 -3.431906226620976 -14.234495839863577 0 6 -14
2321 1 3 0.0265 -14.569319970837624 -4.360182147927944 -15.821871955088561 1 3 -14
3405 16 7 0.41 -12.365272407733222 -4.068852384384261 -12.328512985199541 0 6 -15
2320 1 3 0 -15.081258725446688 -3.0566248068123816 -15.967694339933194 1 3 -14
2730 1 3 -0.1268 -9.463931605216159 -5.741103961833817 -14.992518725771689 0 6 -14
2761 1 6 0.4241 -9.178672784072658 -1.645286540800079 -13.77190290716534 0 6 -14
2742 1 9 -0.4506 -9.21336566065807 -2.5437498087636143 -13.30032643441702 0 6 -14
2731 1 3 0 -9.107370969777422 -4.748806635794885 -14.091071964203808 0 6 -14
3455 1 5 0.1268 -15.36066514123451 -2.4842742247667466 -9.303231408471484 -1 7 -13
2358 1 5 0.053 -12.983023995350004 -6.627452458015579 -15.815038088836562 1 3 -14
606 1 3 -0.1268 -8.439798198949248 -6.0092405400418 -9.122809347510726 -1 7 -13
2751 1 5 0.1268 -9.010320807433107 -6.738750199196856 -14.884471529368799 0 6 -14
1030 1 5 0.1268 -14.837612802222692 -0.7662444723779167 -12.624732800062503 0 6 -14
643 1 5 0.053 -11.13979746524327 -4.220987461734827 -9.086827995988374 -1 7 -13
605 1 3 0 -9.768225375066699 -5.818225380671979 -8.819950864685243 -1 7 -13
631 1 5 0.1268 -12.801716715210128 -6.173486139143835 -8.55425662218412 -1 7 -13
3073 1 5 0.053 -8.763435394352857 -1.0160613118972712 -9.077428929476497 -2 6 -13
1001 1 3 0 -15.913980386462178 -0.06701583463919647 -10.886559007209895 0 6 -14
139 1 5 0.053 -1.6389710707227394 -0.074854069418965 -9.473289685277429 -1 6 -13
2115 83 8 -0.82 -0.3395337910221592 -5.697600831495276 -11.680367131452307 0 6 -14
627 1 1 -0.106 -6.145156417904685 -6.9673623803666445 -8.782403514415723 -1 7 -13
3728 1 3 0 -0.7200483414443006 -7.70103862385011 -15.488025386990834 -1 6 -14
1703 1 3 -0.1268 -5.093419384004765 -4.644793994695943 -8.500726039432555 0 6 -14
2759 1 5 0.053 -8.173492513258983 -6.138046737338737 -12.600596067584204 0 6 -14
2758 1 5 0.053 -8.166590022746526 -4.4731000638137814 -12.163637685301119 0 6 -14
2740 1 1 -0.106 -8.002336628693625 -5.1413346917048255 -13.075940886173246 0 6 -14
145 1 5 0.053 -5.662688145605944 -0.2634223471013044 -14.126005519951125 -1 6 -13
1940 47 7 0.41 -0.5860908117906476 -7.611239892157345 -11.076600188136865 -1 7 -14
648 1 5 0.053 -6.001674413531534 -7.755848857688699 -9.532210916921333 -1 7 -13
3366 1 5 0.053 -7.687359438972528 -8.792885375216795 -12.17910856799929 -1 7 -13
107 1 3 -0.1268 -1.7234780759507267 -0.13349303646879918 -13.872573984801349 -1 6 -13
130 1 5 0.1268 -0.13278440294122973 -3.127930680833856 -16.12314307289731 -1 6 -13
1727 1 6 0.4241 -3.8362454374434574 -1.6685967943705116 -10.79793330905967 0 6 -14
926 47 8 -0.82 -0.6503924764002313 -8.450733867043288 -10.53706212856356 -1 7 -13
2733 1 3 -0.1268 -4.7374672956646915 -3.9549233100790318 -14.521462075978778 0 6 -14
1698 1 3 0 -4.466504500858834 -3.5217816292358943 -8.99681211495069 0 6 -14
1717 1 5 0.1268 -4.1979727174597645 -4.433097147231235 -12.26552348512012 0 6 -14
2520 104 8 -0.82 -1.5376266482030818 -3.5806302091193665 -12.845536667092983 0 6 -15
1708 1 9 -0.4506 -3.3289074608158806 -2.4750010134654623 -10.816154004996301 0 6 -14
2753 1 5 0.1268 -6.664806975490034 -3.031012116060131 -14.166797835929213 0 6 -14
1702 1 3 0 -5.5510165755359075 -5.702143819679387 -9.353556681468813 0 6 -14
112 1 3 -0.1268 -3.128876747626329 -0.3147213126077659 -13.920230055358038 -1 6 -13
2426 1 9 -0.4506 -1.2759768860287082 -5.3403228998285766 -8.90752198820551 -1 6 -13
2743 1 9 -0.4506 -2.5941169426936845 -5.0454482573485855 -14.908663904352112 0 6 -14
111 1 3 0 -3.989790514676912 -0.059551062408331745 -12.813733760855994 -1 6 -13
3567 62 7 0.41 -3.8684344797952424 -7.213219020377705 -9.63561552122659 2 4 -13
3759 1 5 0.053 -2.030981682064711 -9.295463007144376 -14.885410377128569 -1 6 -14
2752 1 5 0.1268 -4.251817816011696 -3.0143233703001737 -14.823715675860912 0 6 -14
244 1 6 0.4241 -3.835112898412241 -9.088673813826086 -8.689689276517155 0 7 -14
2755 1 5 0.1268 -3.8892755115009567 -7.153097987528673 -14.233552103241419 0 6 -14
2735 1 3 0 -6.5654337753361816 -5.160452709183934 -13.64304114623926 0 6 -14
630 1 5 0.1268 -8.028581989097354 -5.3681741357036525 -9.918662274853943 -1 7 -13
2445 1 6 0.4241 -0.7576451276865637 -5.469650438482299 -9.774547884861395 -1 6 -13
1701 1 3 -0.1268 -5.294113570239306 -5.56283801316779 -10.71994222722257 0 6 -14
1220 62 7 0.41 -2.6964662550754763 -6.692642971049564 -8.947700500509466 2 7 -14
3754 1 6 0.4241 -2.6749600485813616 -9.0077752931737 -16.45700805442238 -1 6 -14
2477 104 7 0.41 -2.1442941666906776 -3.0667745995758438 -12.218871981571514 0 6 -15
125 1 1 -0.106 -5.489105186354884 -0.40632647472548555 -13.047631629128624 -1 6 -13
1700 1 3 -0.1268 -4.441676626653255 -4.533795249534158 -11.186510588884074 0 6 -14
142 1 5 0.053 -1.445025515054482 -1.132435190250412 -15.752314317336518 -1 6 -13
947 47 7 0.41 -1.5204247485492495 -8.293731982038972 -10.064254689640629 -1 7 -13
1699 1 3 0.0265 -4.090578101307168 -3.4821709497670863 -10.3673831415895 0 6 -14
2754 1 5 0.1268 -6.409976517261141 -7.289603363087476 -13.521583820981935 0 6 -14
2540 104 7 0.41 -0.8903271143166442 -2.8570652910197474 -13.093325425471697 0 6 -15
2762 1 6 0.4241 -2.1986930245626954 -4.379337614250403 -14.316575106142222 0 6 -14
3047 1 3 0.0265 -6.962171055669735 -0.3024249643343815 -10.925732799023695 -2 6 -13
2737 1 3 -0.1268 -4.564630598367321 -6.342311840186564 -14.24602525332758 0 6 -14
3739 1 1 -0.106 -1.0287641533320073 -8.846680163748118 -14.58217075783681 -1 6 -14
2736 1 3 -0.1268 -5.844967838627271 -6.359638593520156 -13.785875137366245 0 6 -14
1718 1 5 0.1268 -5.570028578727566 -6.487167147956821 -11.260774520452093 0 6 -14
3546 62 8 -0.82 -3.056537561515025 -7.551281536204565 -9.227259367414202 2 4 -13
2738 1 3 0.0265 -3.928024789731108 -5.119131829448079 -14.577072763509104 0 6 -14
123 1 1 -0.106 -0.8735670786844505 -0.6130334293754558 -15.007275572356011 -1 6 -13
2135 83 7 0.41 -0.6918667645605332 -5.088265250400376 -12.379980516814367 0 6 -14
3758 1 5 0.053 -1.349314944977376 -8.500852694039661 -13.56748564293687 -1 6 -14
146 1 5 0.053 -5.723804397775522 -1.4726423719079165 -12.9247427082692 -1 6 -13
3057 1 9 -0.4506 -6.613537699674708 -1.5904172461073074 -10.569593050031495 -2 6 -13
3076 1 6 0.4241 -7.160296392293638 -1.8661085790839707 -9.8351373133349 -2 6 -13
132 1 5 0.1268 -3.568008940531076 -0.8729163175156494 -14.812609657286218 -1 6 -13
2734 1 3 -0.1268 -6.064050312541777 -3.970160718065685 -14.127091433021317 0 6 -14
136 1 6 0.4241 -0.3409620073218598 -1.5252536114334951 -9.725996175895279 -1 6 -13
3727 1 3 0.0265 -1.3514302254617458 -7.553928506662826 -16.686758905260096 -1 6 -14
601 1 3 0 -7.590360089193776 -6.917679513079188 -8.38999050465565 -1 7 -13
904 1 3 -0.1268 -14.388312943594249 -15.537613615409358 -7.108515370731837 0 7 -13
903 1 3 0 -13.747686983224323 -14.80107703386245 -6.103902228354087 0 7 -13
938 1 5 0.053 -13.985717193374043 -12.785801364070561 -6.497276810796333 0 7 -13
920 1 1 -0.106 -14.306367470136058 -13.449277010186009 -5.735026692739158 0 7 -13
902 1 3 0.0265 -12.624658590073382 -15.424559985390628 -5.4713259998487995 0 7 -13
905 1 3 0 -14.107804811627238 -16.914436455670987 -7.256841437255224 0 7 -13
937 1 5 0.053 -14.016674063150965 -13.038498502833503 -4.818902035809549 0 7 -13
901 1 3 0 -12.285389475010794 -16.746255925925684 -5.684557706021613 0 7 -13
924 1 9 -0.4506 -11.990281448955272 -14.669179108129391 -4.5307146012927895 0 7 -13
944 1 6 0.4241 -11.281856453356038 -15.190073466703911 -3.982885105840035 0 7 -13
222 1 9 -0.4506 -11.985285152817013 -11.430083094831085 -5.375855129551097 0 7 -14
241 1 6 0.4241 -12.093118607681204 -10.478940287042652 -5.529190356498312 0 7 -14
927 1 1 -0.106 -11.140104893702485 -17.47781120900714 -5.0001866860970505 0 7 -13
221 1 1 -0.106 -10.562044560573597 -12.803574668067476 -7.500891074017659 0 7 -14
949 1 5 0.053 -10.369384723107673 -16.822729155146426 -4.5773161032223335 0 7 -13
906 1 3 -0.1268 -13.097264840454324 -17.480661150702105 -6.482790789672668 0 7 -13
2745 109 8 -0.82 -13.621155191495909 -12.836883271793774 -2.6411557493190596 0 6 -16
210 1 3 0.0265 -10.620757163496645 -11.681949313686179 -5.186205135335431 0 7 -14
1667 1 5 0.1268 -14.881400001925455 -16.750385229122898 -1.9426039626032683 0 8 -15
1675 1 5 0.1268 -13.634372595705958 -17.712127477340232 -3.6753930208907324 0 8 -15
2579 1 5 0.053 -11.41114725415998 -13.760883295579042 -1.9919113696203858 0 7 -15
1646 1 3 -0.1268 -14.58689644216586 -17.08836443059163 -0.9472601871713504 0 8 -15
246 1 5 0.053 -11.792711246416484 -10.636497835362023 -3.092809361412897 0 7 -14
209 1 3 0 -9.908792034306682 -12.477178139811219 -6.131338932621745 0 7 -14
2553 1 3 -0.1268 -9.16255221140894 -17.623725983540254 -1.8898203805114484 0 7 -15
2555 1 3 0 -10.170850604260274 -15.495147512667865 -1.6176763595855217 0 7 -15
913 1 3 0 -15.805672663290673 -13.444176944475009 -5.814978853778797 0 7 -13
2765 109 7 0.41 -14.159618883237243 -12.181856649458346 -3.1092818287143196 0 6 -16
2556 1 3 -0.1268 -9.242343038009835 -14.964681911333244 -2.5582731996366466 0 7 -15
225 1 1 -0.106 -10.679165831283022 -10.592991697735602 -2.8469307131876587 0 7 -14
2554 1 3 -0.1268 -10.104991034793454 -16.841596192755954 -1.2507592178420914 0 7 -15
211 1 3 0 -9.954786251338957 -11.266604474759959 -4.000293839868187 0 7 -14
2560 1 1 -0.106 -11.269147455524761 -14.5233089814988 -1.198898482581793 0 7 -15
2578 1 5 0.053 -12.245091945692 -15.019868737389451 -1.138781963096534 0 7 -15
2581 1 6 0.4241 -12.490687410708876 -12.742505464017821 -0.9358246878865994 0 7 -15
245 1 5 0.053 -10.650258503144332 -11.179439150920622 -1.960521746419115 0 7 -14
2657 109 7 0.41 -12.892461975263412 -13.028804731310487 -3.258504175918187 -1 6 -15
933 1 5 0.1268 -15.777990913638062 -11.830509379404475 -7.345415057727468 0 7 -13
919 1 9 -0.4506 -16.130996920042815 -14.987241274234828 -4.024723970907511 0 7 -13
240 1 5 0.053 -11.272781224564588 -13.632715005244913 -7.258574111782508 0 7 -14
1684 1 5 0.053 -14.549112440266327 -14.408475754470691 -0.9536111381356491 0 8 -15
929 1 5 0.1268 -15.283803159467592 -15.203888483054893 -7.636507128496703 0 7 -13
1645 1 3 -0.1268 -14.529139281362871 -18.42070397865422 -0.8623305582916174 0 8 -15
2573 1 5 0.1268 -10.84818484911139 -17.343343946184806 -0.5513142927439567 0 7 -15
3473 1 3 0 -16.170395785084388 -10.695698262156592 -1.8082580410658409 -1 6 -15
936 1 6 0.4241 -15.324128398917201 -14.472428817134894 -3.746677060540293 0 7 -13
2574 1 5 0.1268 -9.255533799836247 -13.897607449341857 -2.8268626006374387 0 7 -15
239 1 5 0.053 -11.109873008111121 -11.89244922014419 -7.817276396143361 0 7 -14
914 1 3 -0.1268 -16.3692334210333 -12.585038700892849 -6.7708388174974665 0 7 -13
1658 1 3 -0.1268 -12.893660835825134 -18.527412087448226 -3.4418904896787357 0 8 -15
907 1 3 0 -16.180224201530578 -18.108058593845577 -7.117353952888935 0 7 -13
948 1 5 0.053 -10.73467118007568 -18.057427497023422 -5.858487653998232 0 7 -13
1657 1 3 0 -11.613808086215455 -18.46144327773575 -3.949419751114961 0 8 -15
2572 1 5 0.1268 -9.236067784976804 -18.69384387129457 -1.7153525576765887 0 7 -15
3485 1 1 -0.106 -16.008009867263166 -11.168915815551 -0.4305411165951085 -1 6 -15
930 1 5 0.1268 -12.918678500746749 -18.545324373784155 -6.620136032021916 0 7 -13
923 1 1 -0.106 -15.057462408611041 -17.76704369510812 -8.036573067701555 0 7 -13
2562 1 9 -0.4506 -12.083550693113246 -12.06843658029673 -0.3677783451926544 0 7 -15
208 1 3 -0.1268 -8.576727417915887 -12.722222029985675 -5.821151370922372 0 7 -14
3478 1 3 0.0265 -15.412577558026655 -9.689460987907918 -2.3398793817546597 -1 6 -15
212 1 3 -0.1268 -8.616965775918384 -11.60291993028138 -3.8452677398716215 0 7 -14