LAMMPS data file via write_data, version 2 Aug 2023, timestep = 5000000, units = real

4158 atoms
9 atom types
4356 bonds
8 bond types
7128 angles
12 angle types
10815 dihedrals
14 dihedral types
2904 impropers
7 improper types

-16.473893552035964 16.473893552035964 xlo xhi
-16.670283120188927 16.670283120188927 ylo yhi
-18.930998116835426 18.930998116835426 zlo zhi

Masses

1 12.01115
2 12.01115
3 12.01115
4 12.01115
5 1.00797
6 1.00797
7 1.00797
8 15.9994
9 15.9994

Pair Coeffs # lj/class2/coul/long

1 0.054 4.01
2 0.054 4.01
3 0.064 4.01
4 0.064 4.01
5 0.02 2.3
6 0.013 1.098
7 0.013 1.098
8 0.26 3.61
9 0.24 3.535

Bond Coeffs # class2

1 1.501 321.902 -521.821 572.163
2 1.101 345 -691.89 844.6
3 1.42 400.395 -835.195 1313.01
4 1.417 470.836 -627.618 1327.63
5 1.0982 372.825 -803.453 894.317
6 1.3768 428.88 -738.235 1114.97
7 0.965 532.506 -1282.9 2004.77
8 0.97 563.28 -1428.22 1902.12

Angle Coeffs # class2

1 120.05 44.7148 -22.7352 0
2 105.8 52.7061 -12.109 -9.8681
3 111 44.3234 -9.4454 0
4 111 44.3234 -9.4454 0
5 110.5 46 0 0
6 118.9 61.0226 -34.9931 0
7 117.94 35.1558 -12.4682 0
8 123.42 73.6781 -21.6787 0
9 108.19 53.125 -8.5016 0
10 107.66 39.641 -12.921 -2.4318
11 108.728 58.5446 -10.8088 -12.4006
12 103.7 49.84 -11.6 -8

BondBond Coeffs

1 12.0676 1.501 1.417
2 -9.6879 1.42 0.965
3 0 1.501 1.501
4 2.9168 1.501 1.101
5 0 1.501 1.42
6 68.2856 1.417 1.417
7 1.0795 1.417 1.0982
8 48.4754 1.417 1.3768
9 20.6577 1.3768 0.965
10 5.3316 1.101 1.101
11 23.1979 1.101 1.42
12 -9.5 0.97 0.97

BondAngle Coeffs

1 47.0579 31.0771 1.501 1.417
2 28.58 18.9277 1.42 0.965
3 0 0 1.501 1.501
4 26.4608 11.7717 1.501 1.101
5 0 0 1.501 1.42
6 28.8708 28.8708 1.417 1.417
7 20.0033 24.2183 1.417 1.0982
8 58.479 107.681 1.417 1.3768
9 53.8614 23.9224 1.3768 0.965
10 18.103 18.103 1.101 1.101
11 4.6189 55.327 1.101 1.42
12 22.35 22.35 0.97 0.97

Dihedral Coeffs # class2

1 0 0 4.4072 0 0 0
2 0 0 1.559 0 0 0
3 0 0 3 0 0 0
4 -0.2802 0 -0.0678 0 -0.0122 0
5 0 0 0 0 0.13 0
6 8.3667 0 1.1932 0 0 0
7 0 0 3.9661 0 0 0
8 0 0 4.8498 0 0 0
9 -0.69 0 0.5097 0 0.0095 0
10 -0.2801 0 -0.0678 0 -0.0122 0
11 0.1863 0 -0.4338 0 -0.2121 0
12 0 0 1.8769 0 0 0
13 0 0 1.7234 0 0 0
14 0 0 0 0 0 0

AngleAngleTorsion Coeffs

1 -14.4097 120.05 118.9
2 4.4444 120.05 117.94
3 0 120.05 123.42
4 0 111 120.05
5 0 110.5 105.8
6 0 118.9 118.9
7 -4.8141 118.9 117.94
8 -21.0247 118.9 123.42
9 -4.6072 123.42 108.19
10 -5.8888 111 120.05
11 -10.5093 108.728 105.8
12 0.3598 117.94 117.94
13 4.2296 117.94 123.42
14 0 110.5 120.05

EndBondTorsion Coeffs

1 0 0.2421 0 0 -0.6918 0 1.501 1.417
2 0 -1.797 0 0 -0.4879 0 1.501 1.0982
3 0 0 0 0 0 0 1.501 1.3768
4 0 0 0 0 0 0 1.501 1.417
5 0 0 0 0 0 0 1.501 0.965
6 -0.1185 6.3204 0 -0.1185 6.3204 0 1.417 1.417
7 0 -6.8958 0 0 -0.4669 0 1.417 1.0982
8 0 0.2655 0 0 4.8905 0 1.417 1.3768
9 0.9 -1.3456 1.19 3.4132 0.5873 -0.1323 1.417 0.965
10 1.3997 0.7756 0 -0.5835 1.122 0.3978 1.101 1.417
11 -1.7554 1.3145 0.2263 0.2493 0.6803 0 1.101 0.965
12 0 -0.689 0 0 -0.689 0 1.0982 1.0982
13 0 -1.5867 0 0 4.2641 0 1.0982 1.3768
14 0 0 0 0 0 0 1.42 1.417

MiddleBondTorsion Coeffs

1 0 9.1792 0 1.417
2 0 3.9421 0 1.417
3 0 0 0 1.417
4 0 0 0 1.501
5 0 0 0 1.42
6 27.5989 -2.312 0 1.417
7 0 -1.1521 0 1.417
8 0 4.8255 0 1.417
9 1.158 3.2697 3.5132 1.3768
10 -5.5679 1.4083 0.301 1.501
11 0 0.9241 -0.5889 1.42
12 0 4.8228 0 1.417
13 0 5.5432 0 1.417
14 0 0 0 1.501

BondBond13 Coeffs

1 2.5085 1.501 1.417
2 0.8743 1.501 1.0982
3 0 1.501 1.3768
4 0 1.501 1.417
5 0 1.501 0.965
6 53 1.417 1.417
7 -6.2741 1.417 1.0982
8 -2.2436 1.417 1.3768
9 1.159 1.417 0.965
10 -3.4826 1.101 1.417
11 0 1.101 0.965
12 -1.7077 1.0982 1.0982
13 2.0517 1.0982 1.3768
14 0 1.42 1.417

AngleTorsion Coeffs

1 0 -4.4683 0 0 3.8987 0 120.05 118.9
2 0 -0.1242 0 0 3.4601 0 120.05 117.94
3 0 0 0 0 0 0 120.05 123.42
4 0 0 0 0 0 0 111 120.05
5 0 0 0 0 0 0 110.5 105.8
6 1.9767 1.0239 0 1.9767 1.0239 0 118.9 118.9
7 0 2.5014 0 0 2.7147 0 118.9 117.94
8 0 10.0155 0 0 1.7404 0 118.9 123.42
9 -5.136 -1.0122 0 4.6852 0.023 -0.598 123.42 108.19
10 4.6266 0.1632 0.0461 0.2251 0.6548 0.1237 111 120.05
11 -3.406 1.6396 0.0737 0 -0.281 -0.5944 108.728 105.8
12 0 2.4501 0 0 2.4501 0 117.94 117.94
13 0 1.8729 0 0 2.5706 0 117.94 123.42
14 0 0 0 0 0 0 110.5 120.05

Improper Coeffs # class2

1 7.8153 0
2 4.8912 0
3 13.0421 0
4 0 0
5 0 0
6 0 0
7 0 0

AngleAngle Coeffs

1 0 0 0 120.05 118.9 120.05
2 0 0 0 118.9 117.94 117.94
3 0 0 0 118.9 123.42 123.42
4 0 0 0 111 111 111
5 2.3794 3.0118 2.3794 111 111 107.66
6 0 0 0 111 108.728 110.5
7 2.4259 2.4259 2.1283 107.66 108.728 108.728

Atoms # full

1231 1 5 0.053 -13.992383402447887 -9.573299873308212 -16.037472210797247 0 7 -14
3339 1 9 -0.4506 -13.048137287974857 -12.466901699848783 -15.566468458315793 -1 7 -13
3361 1 6 0.4241 -12.182274724915843 -12.463168070795938 -15.994291243838566 -1 7 -13
3359 1 5 0.053 -10.665139768305188 -12.6592488152121 -15.411040853707334 -1 7 -13
3358 1 5 0.1268 -11.829366855822315 -10.110430190040923 -14.324265068438876 -1 7 -13
3333 1 3 -0.1268 -10.723238093911942 -10.080719928338695 -14.253216442770029 -1 7 -13
3338 1 1 -0.106 -10.457372975016062 -12.47407682025478 -14.332350458776784 -1 7 -13
286 1 6 0.4241 -12.732833276265236 -14.56989332214252 -15.000588353772033 0 7 -14
3334 1 3 0 -9.848209441219097 -11.1292460277987 -14.137727448388679 -1 7 -13
3331 1 3 0.0265 -13.02268145805213 -12.51753679690631 -14.152342457337518 -1 7 -13
3326 1 3 -0.1268 -11.770315722361975 -12.53208199667493 -13.546936494122566 -1 7 -13
3330 1 3 0 -14.189207874712906 -12.518552884090077 -13.426586889464652 -1 7 -13
3360 1 5 0.053 -9.82484454779637 -13.313840044784754 -14.022149991727385 -1 7 -13
269 1 9 -0.4506 -12.253594136502755 -15.103293034030928 -15.663495888410752 0 7 -14
259 1 3 -0.1268 -10.345154658145262 -15.581091175761973 -12.662842203725969 0 7 -14
289 1 5 0.053 -12.34529906457404 -14.69411875781417 -12.640307139836777 0 7 -14
3327 1 3 -0.1268 -11.797311350377395 -12.415304481004739 -12.147325659392576 -1 7 -13
3329 1 3 -0.1268 -14.14763156256719 -12.372615342908087 -12.065588222080063 -1 7 -13
260 1 3 0.0265 -9.605501847176217 -15.216455125195854 -11.541896023229532 0 7 -14
3353 1 5 0.1268 -10.79331285500525 -12.343325436988039 -11.64170869192802 -1 7 -13
3328 1 3 0 -12.901317079478225 -12.371025476828926 -11.428008699207119 -1 7 -13
272 1 9 -0.4506 -10.09554622547559 -14.91178845769032 -10.326503699619145 0 7 -14
3355 1 5 0.1268 -15.00355833324664 -12.508160564751256 -11.401777667396187 -1 7 -13
3354 1 5 0.1268 -12.810301581968481 -12.335560189901441 -10.31950434929032 -1 7 -13
3349 1 1 -0.106 -15.467918639256807 -12.668039052260259 -14.130843318401087 -1 7 -13
1232 1 6 0.4241 -13.83622832805872 -11.180272774849387 -17.068604360519558 0 7 -14
3370 1 5 0.053 -15.520496383307687 -12.089729198536041 -15.065182223560257 -1 7 -13
1213 1 9 -0.4506 -14.633518301757341 -11.173737506055996 -17.648204828464237 0 7 -14
1443 1 5 0.1268 -8.978473691801135 -12.319255514630914 -17.05433585162146 -2 5 -14
2138 1 3 -0.1268 -15.762655756806325 -14.152467570361107 -14.428350366428486 1 8 -14
3742 106 8 -0.82 -11.789463915294455 -12.186546850720244 -17.9816699560542 0 7 -15
1203 1 3 0 -14.430834065261955 -8.758829726697076 -17.905517891625333 0 7 -14
1212 1 1 -0.106 -14.293102355457417 -8.627575566152887 -16.433338821746897 0 7 -14
641 1 6 0.4241 -11.98012456163346 -9.558629534034091 -12.533757823291396 -1 7 -13
1355 69 7 0.41 -13.332884828274661 -14.687787362766885 -18.008966290687567 1 6 -14
271 1 1 -0.106 -11.869715157734907 -15.657990587556 -12.651228966169844 0 7 -14
3763 106 7 0.41 -10.837126989934113 -12.404032593436789 -18.107236477245195 0 7 -15
279 1 5 0.1268 -9.848493840173706 -15.936219287487976 -16.344209275326048 0 7 -14
258 1 3 -0.1268 -9.672986111289177 -16.06439170708071 -13.748380266728446 0 7 -14
290 1 5 0.053 -12.132164288281633 -16.14287757860694 -11.699642905985097 0 7 -14
622 1 9 -0.4506 -12.643169981559694 -9.221950180339658 -11.910006334098629 -1 7 -13
291 1 6 0.4241 -10.86251324289189 -15.431965426271665 -10.128549550385895 0 7 -14
1204 1 3 0.0265 -14.620414871573844 -10.021460731683561 -18.460710366571444 0 7 -14
4038 69 8 -0.82 -13.73480814039727 -14.048642960569376 -18.574975142863753 1 7 -14
4060 69 7 0.41 -13.220391444537663 -13.253054779686124 -18.354415527599617 1 7 -14
2139 1 3 -0.1268 -15.921788245115355 -14.942860960610615 -13.311733017277792 1 8 -14
2161 1 5 0.1268 -15.888888948644198 -14.64083737740022 -12.334609759277622 1 8 -14
943 1 5 0.053 -16.122884015140023 -14.920527391668575 -9.736246681572656 0 7 -13
3335 1 3 0.0265 -8.512414860109134 -10.922675515462764 -13.7540640165876 -1 7 -13
268 1 3 0.0265 -12.400774497600263 -16.3388817468638 -15.090378975405798 0 7 -14
287 1 5 0.053 -11.818755788857475 -16.254051592782645 -17.81540119829013 0 7 -14
550 17 7 0.41 -14.365993175266809 -8.665786196631702 -11.987413617748636 0 7 -14
1216 1 5 0.1268 -16.390410571333728 -10.25152547725671 -16.489445310581214 0 7 -14
3369 1 5 0.053 -16.33285654932503 -12.304251322628076 -13.52184433631389 -1 7 -13
3332 1 3 0 -10.312627437954777 -8.775735833330678 -14.08359290681478 -1 7 -13
3337 1 3 -0.1268 -9.005308509789394 -8.553600719997256 -13.821058617211676 -1 7 -13
2137 1 3 -0.1268 -16.177647564489583 -14.557327915524654 -15.700366422571003 1 8 -14
2163 1 5 0.1268 -16.40768702307496 -13.734877632831719 -16.475691148079036 1 8 -14
257 1 3 0 -8.264250813537348 -16.059955857345035 -13.89038295473436 0 7 -14
2746 1 5 0.1268 -9.685964671419004 -8.49429033165699 -18.75579661693645 0 6 -14
267 1 3 0 -12.465872265115738 -16.598149487678707 -13.743983658490047 0 7 -14
2140 1 3 0 -16.453047412695614 -16.228703484046665 -13.450791409077606 1 8 -14
281 1 5 0.1268 -10.322064480559824 -16.439489335987204 -14.537293883869332 0 7 -14
1088 1 5 0.053 -15.492154851139604 -16.356960718956426 -18.891424731283486 0 7 -14
3372 1 5 0.053 -8.19343437476808 -10.256844326662335 -18.635006646711034 -1 7 -13
3348 1 9 -0.4506 -4.434602946240272 -10.70743589062223 -18.874429925764137 -1 7 -13
3362 1 6 0.4241 -8.089557192664484 -12.600312798937214 -13.00886959683894 -1 7 -13
1425 1 3 -0.1268 -6.044690058430438 -14.099688476390138 -18.723370379592687 -2 5 -14
261 1 3 0 -8.18495404513468 -15.13913699447562 -11.610979609727469 0 7 -14
295 1 5 0.053 -7.229863962770059 -15.301022038026629 -9.717837551261706 0 7 -14
1427 1 3 0.0265 -8.123999219003702 -12.99140068791603 -18.89492857189773 -2 5 -14
262 1 3 -0.1268 -7.589212584796025 -15.535667110786433 -12.836472242349704 0 7 -14
275 1 1 -0.106 -7.196749981755463 -14.579787841966688 -10.553211105000484 0 7 -14
1422 1 3 -0.1268 -8.158770112727003 -12.882145402627158 -17.505556728135147 -2 5 -14
273 1 1 -0.106 -7.474022253186405 -16.529788208283083 -15.113364773939129 0 7 -14
292 1 5 0.053 -7.302167538835887 -15.653745596029765 -15.711729785145595 0 7 -14
3336 1 3 0 -8.06253048752343 -9.532902205907973 -13.682493237723182 -1 7 -13
1145 55 7 0.41 -2.381620571726083 -13.655258819841698 -18.29261555180404 -2 7 -15
3340 1 9 -0.4506 -7.657260229597572 -11.94408760341374 -13.583476851131259 -1 7 -13
282 1 5 0.1268 -6.484434990668268 -15.489391840759668 -12.802021116229247 0 7 -14
237 1 5 0.053 -5.323212223872483 -9.05352970252939 -10.651800387850333 0 7 -14
296 1 5 0.053 -6.17659703238302 -14.76145825949454 -10.925458404579803 0 7 -14
3155 1 1 -0.106 -3.1210787040321044 -11.578206613212208 -12.995737310271506 -1 6 -14
2298 1 5 0.1268 -4.974313727509497 -12.863367911069524 -14.486525571414994 -1 4 -15
3345 1 3 -0.1268 -4.239685040077184 -10.10149254379671 -16.533196176373604 -1 7 -13
2275 1 3 0 -1.4457022674166087 -13.769221070218357 -15.608032792996648 -1 4 -15
2271 1 3 0 -3.865365879319004 -14.015720124928135 -15.828512722681825 -1 4 -15
2276 1 3 0.0265 -2.5714931123476266 -14.350275406953406 -16.27468572739525 -1 4 -15
1424 1 3 0 -6.08227299287708 -14.050642198761315 -17.297520089587938 -2 5 -14
3341 1 3 0 -6.291252531825593 -9.661581287222003 -17.621969201176256 -1 7 -13
1423 1 3 -0.1268 -7.184122612014786 -13.457792692677238 -16.716111260010525 -2 5 -14
3346 1 3 0.0265 -4.985836188336734 -10.144643339111186 -17.728856783655463 -1 7 -13
3342 1 3 -0.1268 -6.837737006407464 -9.30061304532866 -16.327974363274205 -1 7 -13
1444 1 5 0.1268 -7.127332503279673 -13.29177948261623 -15.568391406428665 -2 5 -14
2294 1 1 -0.106 -5.061945987806984 -14.660412542956355 -16.317415756316592 -1 4 -15
2272 1 3 -0.1268 -3.9725233881508046 -13.09961278912424 -14.830269254197407 -1 4 -15
2274 1 3 -0.1268 -1.6570124309707523 -12.78782420943194 -14.599617611100705 -1 4 -15
3343 1 3 0 -6.138259307066509 -9.442684619664234 -15.179529201916969 -1 7 -13
3365 1 5 0.1268 -3.160089689592473 -10.198226457903827 -16.532068330297882 -1 7 -13
3344 1 3 -0.1268 -4.838590227874224 -9.771281041290091 -15.321957061796393 -1 7 -13
2273 1 3 0 -2.943850923828723 -12.46953879741854 -14.159708271284003 -1 4 -15
2296 1 5 0.1268 -0.763258125833504 -12.43793465530875 -14.054105318875415 -1 4 -15
3176 1 5 0.053 -2.6579228894669455 -10.576028237292615 -13.19263445097738 -1 6 -14
3172 1 6 0.4241 -3.567238195783272 -14.30562469646884 -12.861102427078247 -1 6 -14
3177 1 5 0.053 -4.149389111758003 -11.336801904433209 -12.765107457288071 -1 6 -14
3152 1 9 -0.4506 -3.6451287131023893 -14.31349338246329 -11.906039453189393 -1 6 -14
3145 1 3 0 -2.424418704594551 -12.184880733382313 -11.729191692185779 -1 6 -14
3150 1 3 0.0265 -2.714419973427404 -13.467314035704007 -11.304841076124562 -1 6 -14
235 1 5 0.1268 -5.607670068095157 -12.46028654416448 -11.267815596512762 0 7 -14
3167 1 5 0.1268 -1.3045136029605437 -10.369679660285149 -11.207294262738959 -1 6 -14
3146 1 3 -0.1268 -1.6299973567573645 -11.348550734390003 -10.943034516881085 -1 6 -14
238 1 5 0.053 -4.321037960465089 -10.532103085285168 -10.735672688925558 0 7 -14
214 1 3 -0.1268 -6.434875955503763 -12.13580733915743 -10.559197298640116 0 7 -14
3367 1 5 0.053 -6.159469308918361 -9.708529992611574 -13.037292137164716 -1 7 -13
3364 1 5 0.1268 -4.261169807518064 -9.807195784805579 -14.426033403405718 -1 7 -13
3149 1 3 -0.1268 -2.1493554095471374 -13.969219313246384 -10.163873502560993 -1 6 -14
3147 1 3 0 -0.9558327157440232 -11.905491933206097 -9.827105354629323 -1 6 -14
3347 1 1 -0.106 -6.689679988359067 -9.129811568668796 -13.780872628666794 -1 7 -13
3363 1 5 0.1268 -7.851375045612759 -8.865897133076896 -16.343748148237115 -1 7 -13
215 1 3 0 -7.36082143106862 -13.106222952558188 -10.195738352205392 0 7 -14
2313 1 5 0.053 -5.615215830443427 -14.915230666842046 -15.372907383688567 -1 4 -15
2314 1 5 0.053 -4.733692938511423 -15.627562476681533 -16.720137939441663 -1 4 -15
228 14 8 -0.82 -0.9371285927654096 -10.415006866010714 -17.03946336008581 -1 7 -14
2291 1 9 -0.4506 -2.4136144320650157 -15.22553764933728 -17.342752171319734 -1 4 -15
213 1 3 0 -6.350341921972561 -10.866664125798673 -9.993047544290759 0 7 -14
1989 14 7 0.41 -0.31125254274217795 -10.37114707095861 -17.81964979559551 -1 7 -14
220 1 1 -0.106 -5.07858953536938 -10.032153489981543 -10.152845192183774 0 7 -14
2704 55 7 0.41 -3.0266120595978574 -12.305076051557664 -18.52912827504629 -2 7 -14
3351 1 1 -0.106 -7.24846357193997 -9.651711047958706 -18.81772348928205 -1 7 -13
2310 1 6 0.4241 -2.2513554823537394 -16.11346178302047 -16.997712531710448 -1 4 -15
3169 1 5 0.1268 -2.468652329300644 -14.932407201712019 -9.825217538961187 -1 6 -14
250 14 7 0.41 -0.735762891543656 -11.327591875051791 -16.780435412852533 -1 7 -14
3754 1 6 0.4241 -1.832932224392053 -8.698538329861648 -17.080549116717627 -1 6 -14
244 1 6 0.4241 -3.269633161106416 -8.457972287041864 -9.980480749294786 0 7 -14
3759 1 5 0.053 -0.9140813411527251 -8.50115751716145 -15.003011800779962 -1 6 -14
3170 1 5 0.053 -0.020143863021331754 -9.952322740062352 -9.571864174005514 -1 6 -14
3148 1 3 -0.1268 -1.1695126510807725 -13.280753756348009 -9.50978149156023 -1 6 -14
2289 1 1 -0.106 -0.05669087225366809 -14.368816995220651 -15.822571731623766 -1 4 -15
2280 1 3 -0.1268 -0.019869832498304874 -16.486900642792722 -14.284990953887716 -1 4 -15
3070 1 5 0.1268 -11.82888488746722 -0.13524354737043964 -11.329626288575549 -2 6 -13
1195 1 3 0 -15.65695693090453 -8.333711012321311 -15.840180965327528 0 7 -14
3048 1 3 -0.1268 -9.004947852382934 -0.4088106662013473 -9.581064427395434 -2 6 -13
528 17 8 -0.82 -15.239782182540516 -8.294321504661946 -11.704156496471626 0 7 -14
1027 1 1 -0.106 -16.19967718884433 -0.9996786902792074 -11.493261571053718 0 6 -14
3052 1 3 -0.1268 -10.773059555822766 -0.25732122271268665 -11.199701576080457 -2 6 -13
1030 1 5 0.1268 -14.553614268951089 -0.2409530146863048 -13.190694206338087 0 6 -14
1230 1 5 0.053 -13.587884872426683 -7.882722420526775 -16.212622727979518 0 7 -14
2334 1 1 -0.106 -16.21641242027567 -3.032375809656754 -17.43047399904108 1 3 -14
284 17 7 0.41 -14.959936096141826 -7.3904363903683095 -11.412129701019722 0 7 -14
1403 1 5 0.1268 -15.867436749822813 -3.593519223321181 -14.639006795934101 -1 7 -13
1196 1 3 -0.1268 -16.025744245822377 -7.168490071757613 -15.174764817290175 0 7 -14
3051 1 3 -0.1268 -9.829016222944949 -0.7022736136674137 -12.192512815734018 -2 6 -13
1048 1 5 0.053 -15.17319531722901 -1.4242129050115775 -11.262570434094009 0 6 -14
2351 1 5 0.053 -15.454176623372362 -2.784616927740725 -16.62695984875871 1 3 -14
645 1 5 0.053 -12.293202218566154 -8.109023826037909 -14.358999240920458 -1 7 -13
610 1 3 0.0265 -12.221314122865909 -7.887091088668816 -11.60679474037546 -1 7 -13
300 16 7 0.41 -12.474507273296654 -4.674568259898383 -16.569729149846637 0 6 -15
1217 1 5 0.1268 -15.27499254346393 -6.312643461613892 -14.977675451338134 0 7 -14
608 1 3 -0.1268 -11.821014321699735 -6.104577142008997 -10.092686593097632 -1 7 -13
1384 1 3 0.0265 -14.639214845251512 -3.8716021528122617 -11.500954254649923 -1 7 -13
612 1 3 -0.1268 -10.965875151045132 -5.990451782671679 -12.309441240544388 -1 7 -13
1225 1 5 0.1268 -14.221654350116737 -6.726887146923923 -18.193537736482895 0 7 -14
625 1 1 -0.106 -11.338950749920517 -7.709581702078369 -14.048837048481825 -1 7 -13
1385 1 3 -0.1268 -14.708618650505553 -3.5126978057719036 -12.807590834522777 -1 7 -13
646 1 5 0.053 -11.246238680296173 -6.84003302984409 -14.762965351182409 -1 7 -13
1402 1 5 0.1268 -14.019475675495883 -2.8619616427027186 -13.343175564413597 -1 7 -13
2727 1 3 0 -10.743981472629896 -2.482387272254188 -17.606202346242835 0 6 -14
611 1 3 0 -11.522009903415526 -7.201802844598896 -12.626390278663187 -1 7 -13
632 1 5 0.1268 -10.263471905552821 -5.478722766170899 -13.05710501501446 -1 7 -13
607 1 3 0 -10.95861726699269 -5.50846949504669 -10.964317709870661 -1 7 -13
609 1 3 -0.1268 -12.46243186963708 -7.23950951892815 -10.332306508159737 -1 7 -13
642 1 5 0.053 -9.471031269528684 -4.113173068999645 -11.4429116784911 -1 7 -13
623 1 1 -0.106 -10.040615020211126 -4.370239167672471 -10.560942463800432 -1 7 -13
2494 1 5 0.053 -11.79480417631342 -0.5770080431595517 -17.4358465515218 0 6 -14
278 16 8 -0.82 -12.973353864561822 -5.44345579005352 -16.109271669193234 0 6 -15
1383 1 3 0 -15.660724631703403 -4.6797511280291335 -10.98194814474418 -1 7 -13
2732 1 3 0.0265 -10.142754271850713 -2.769427104663862 -16.34728562171341 0 6 -14
1386 1 3 -0.1268 -15.732303342289198 -3.958313886185252 -13.589214955733848 -1 7 -13
2730 1 3 -0.1268 -10.058601691386336 -5.055383879814713 -16.89925516319112 0 6 -14
2742 1 9 -0.4506 -9.763397377123937 -1.7668082976224735 -15.484480338411405 0 6 -14
2731 1 3 0 -9.843827151280001 -4.078124131859646 -15.95623847225998 0 6 -14
2761 1 6 0.4241 -9.895428051461653 -0.9168860982455964 -15.9561092384549 0 6 -14
3405 16 7 0.41 -13.62550729648534 -4.953690032281084 -15.624995106967816 0 6 -15
2751 1 5 0.1268 -9.69067271361099 -6.045461678456578 -16.634985715626748 0 6 -14
2729 1 3 0 -10.638316551024815 -4.916614253072151 -18.127561052126396 0 6 -14
2474 1 1 -0.106 -11.126957962969318 -1.0927415830233222 -18.13885133304118 0 6 -14
2451 1 3 0 -9.89288359855284 -0.20366788977111483 -18.316947030757564 0 6 -14
2728 1 3 -0.1268 -10.932489028557303 -3.5811329553818734 -18.445731906863365 0 6 -14
1393 1 9 -0.4506 -13.697587220559603 -3.350104587324454 -10.625231053385669 -1 7 -13
1412 1 6 0.4241 -13.35612494043722 -3.982423705493016 -9.973631508790032 -1 7 -13
3069 1 5 0.1268 -10.22380532225387 -0.8089820372832293 -13.202365805302538 -2 6 -13
2320 1 3 0 -15.507414245795534 -3.61215350732431 -18.605197093252734 1 3 -14
1208 1 3 -0.1268 -14.514820084340917 -7.6896159662658246 -18.725233181701817 0 7 -14
2759 1 5 0.053 -9.338177945402201 -5.3223477665844605 -14.259722175642114 0 6 -14
2758 1 5 0.053 -9.091898462073743 -3.64741722681579 -13.990373635863113 0 6 -14
2740 1 1 -0.106 -8.981745129306084 -4.391580411342678 -14.798200193317852 0 6 -14
3357 1 5 0.1268 -8.654280229819943 -7.530766245816375 -13.682231152302482 -1 7 -13
3050 1 3 0 -8.524833041360704 -1.0701921567474315 -11.886326556889184 -2 6 -13
605 1 3 0 -9.077190774470914 -4.902899576027622 -9.539235480050234 -1 7 -13
3053 1 3 0.0265 -10.326802891639593 -0.038510699180132946 -9.935270560323524 -2 6 -13
643 1 5 0.053 -10.616301105063794 -3.5161851681825773 -10.271762925641845 -1 7 -13
2756 1 5 0.053 -11.152834020196208 -6.792776476305841 -18.544361129065926 0 6 -14
636 1 6 0.4241 -10.542768172671568 -7.697876206761796 -9.475570393244368 -1 7 -13
1726 1 5 0.053 -1.8845565390320633 -1.7002924719318493 -9.558981398475602 0 6 -14
3049 1 3 -0.1268 -8.152811968648333 -0.9688962844378803 -10.510692325069673 -2 6 -13
3076 1 6 0.4241 -5.6985466793735835 -2.0970022130252026 -14.165325307319184 -2 6 -13
3046 1 3 0 -6.856410929440017 -0.19694505962670306 -13.411912835487112 -2 6 -13
1727 1 6 0.4241 -3.4963499378943137 -1.677415346691987 -13.484766134143964 0 6 -14
1584 3 7 0.41 -2.6729899246491104 -5.150196596523715 -10.77489711885891 0 5 -14
1305 66 8 -0.82 -2.5947149415022785 -7.984513499532104 -12.7683338710621 -1 7 -14
28 3 8 -0.82 -2.0272840393338 -5.793736130982651 -11.1139180443568 0 5 -13
1700 1 3 -0.1268 -4.26703623004615 -3.8465172873215927 -12.467426319915312 0 6 -14
2754 1 5 0.1268 -6.980251144030641 -5.873837557709157 -13.557005745216173 0 6 -14
2115 83 8 -0.82 -0.2236314745253125 -3.489566368209921 -11.08566699792075 0 6 -14
3731 1 9 -0.4506 -2.4332363384456936 -3.2489721382132384 -18.32800377175801 -1 6 -14
2755 1 5 0.1268 -4.718339977428169 -6.367648298026625 -14.613663844690201 0 6 -14
3732 1 9 -0.4506 -2.107666759463818 -7.729558123672112 -17.069981073121962 -1 6 -14
3047 1 3 0.0265 -5.665516976376626 -0.24843112488896324 -14.206253604042324 -2 6 -13
3993 66 7 0.41 -2.1788790441738293 -7.342279749473514 -13.352350214640781 -1 7 -14
3068 1 5 0.1268 -7.067761472088129 -1.2011309163327457 -10.339234102684651 -2 6 -13
606 1 3 -0.1268 -7.720953266132927 -5.022905387693079 -9.861972806721774 -1 7 -13
630 1 5 0.1268 -7.4529017788038665 -4.593915727439581 -10.85163381677837 -1 7 -13
1715 83 7 0.41 -0.9018012826570327 -3.2231131270644173 -11.793578564713489 1 6 -15
3726 1 3 0 -0.8162598355000164 -6.043342314448774 -18.230264890318555 -1 6 -14
1717 1 5 0.1268 -4.266070686734311 -3.9967813036591835 -13.529102612290291 0 6 -14
3303 92 8 -0.82 -0.9904994181246458 -5.042676900143611 -14.164903496841013 -3 8 -13
3727 1 3 0.0265 -0.9441530925163999 -7.003494001275435 -17.170737120225127 -1 6 -14
1899 92 7 0.41 -0.7597144385964381 -5.627886292283177 -14.88270094265 -3 7 -12
2743 1 9 -0.4506 -3.6371860318933678 -5.300147157022641 -16.666788884664726 0 6 -14
3055 1 1 -0.106 -7.533829794502614 -1.416552675712234 -12.905778743530366 -2 6 -13
2738 1 3 0.0265 -4.935729045479949 -4.959158355992489 -16.184007323977433 0 6 -14
2762 1 6 0.4241 -3.616029135718385 -6.277057223777085 -16.75184615194876 0 6 -14
3325 92 7 0.41 -0.9123328950082481 -4.125156101254678 -14.569676358121868 -3 8 -13
2733 1 3 -0.1268 -5.780049097645161 -4.007814997987044 -16.729457157761146 0 6 -14
2735 1 3 0 -7.54577576426145 -4.511279078927446 -15.213017906120408 0 6 -14
1707 1 1 -0.106 -2.823984471626007 -1.333879350548413 -10.01461576589319 0 6 -14
3753 1 6 0.4241 -2.523303281611705 -4.112341838811423 -17.984940316685325 -1 6 -14
2540 104 7 0.41 -2.1967735107141912 -2.3218365791043603 -15.777874173036656 0 6 -15
1698 1 3 0 -3.5810002895244892 -2.5566892446665825 -10.583836000232576 0 6 -14
3074 1 5 0.053 -6.755055587036328 -2.0708443245442325 -12.387487287462275 -2 6 -13
1725 1 5 0.053 -2.5797251110876473 -0.5966116072117984 -10.737280870276585 0 6 -14
2753 1 5 0.1268 -7.824341129269033 -3.080156514573302 -16.781189102340925 0 6 -14
136 1 6 0.4241 -0.49238004731617124 -0.7058984202881096 -12.710156161636128 -1 6 -13
1702 1 3 0 -4.88097845296727 -4.589401496921338 -10.279024986790214 0 6 -14
3073 1 5 0.053 -7.923103708597399 -2.054947480086124 -13.741267419358646 -2 6 -13
1701 1 3 -0.1268 -4.812093919123969 -4.827249242248259 -11.647312053891746 0 6 -14
50 3 7 0.41 -1.250162097469481 -5.115176451426388 -11.127263262218008 0 5 -13
1703 1 3 -0.1268 -4.407636739953421 -3.3631627895735416 -9.791467077808496 0 6 -14
3366 1 5 0.053 -6.590563462782049 -8.059062504143734 -13.533096336045936 -1 7 -13
2477 104 7 0.41 -1.0012083427835048 -1.4202437332574664 -15.519125170701937 0 6 -15
648 1 5 0.053 -5.033713439701636 -6.582472395160403 -9.80822881184786 -1 7 -13
1699 1 3 0.0265 -3.565908854525903 -2.756026878165331 -11.956872384195643 0 6 -14
2737 1 3 -0.1268 -5.361691979021538 -5.604297418311884 -15.02543794090069 0 6 -14
1718 1 5 0.1268 -5.327198805616465 -5.686958973277463 -12.024542757998681 0 6 -14
2734 1 3 -0.1268 -7.0813878752534 -3.769916523890979 -16.273705545583006 0 6 -14
2520 104 8 -0.82 -1.4008096502010297 -2.2432417058117053 -15.191221399573452 0 6 -15
1708 1 9 -0.4506 -2.8918477949955648 -1.8629743878321285 -12.749365905605423 0 6 -14
2752 1 5 0.1268 -5.495192273795203 -3.3733590733805308 -17.519214158476768 0 6 -14
1325 66 7 0.41 -2.5353870068262605 -7.466237104733656 -11.953270415074904 -1 7 -14
2736 1 3 -0.1268 -6.681466017755669 -5.3833920615870365 -14.52245108988833 0 6 -14
3057 1 9 -0.4506 -5.032501364962595 -1.4302128996229015 -14.404283844371808 -2 6 -13
3761 1 5 0.053 -2.2246104410201433 -0.925426327441718 -18.915531188853244 -1 6 -14
3752 1 5 0.053 -2.8725041343230373 -6.229140865137719 -18.908649450519945 -1 6 -14
904 1 3 -0.1268 -14.456683180551796 -13.393336959999658 -8.177260106779578 0 7 -13
903 1 3 0 -13.544313692344952 -12.683496343874426 -7.438515985315451 0 7 -13
920 1 1 -0.106 -13.909491482550997 -11.265749278296806 -7.039565525586937 0 7 -13
902 1 3 0.0265 -12.43348176101336 -13.406303132254745 -6.903442470951257 0 7 -13
240 1 5 0.053 -10.139675203109743 -11.860137853409466 -7.6755460936976245 0 7 -14
937 1 5 0.053 -13.639994929004535 -10.949277907453933 -6.023240945292553 0 7 -13
901 1 3 0 -12.302888166742093 -14.808033120258534 -7.207424317671915 0 7 -13
924 1 9 -0.4506 -11.5405327250606 -12.785378987545428 -6.063977960816658 0 7 -13
944 1 6 0.4241 -11.114570233715025 -13.474332823636487 -5.541773666876965 0 7 -13
222 1 9 -0.4506 -10.780890266143638 -10.017373183075371 -5.230032137904999 0 7 -14
241 1 6 0.4241 -11.226321297971126 -10.667055909493392 -5.806584611720577 0 7 -14
239 1 5 0.053 -9.959681574869402 -10.143785990501412 -7.958174634822125 0 7 -14
221 1 1 -0.106 -9.43150862279344 -11.05433859596748 -7.760026117447326 0 7 -14
906 1 3 -0.1268 -13.35483388469833 -15.467453604254645 -7.749523221433144 0 7 -13
2745 109 8 -0.82 -13.248095321013682 -10.708004906612153 -3.475551780209141 0 6 -16
2765 109 7 0.41 -13.741507293900646 -11.255920996040304 -4.1019535669297795 0 6 -16
210 1 3 0.0265 -9.429723556997082 -10.35482680295415 -5.293300228871328 0 7 -14
1667 1 5 0.1268 -14.473911729504842 -14.639931463101295 -2.3494211421950766 0 8 -15
2657 109 7 0.41 -12.98739658074254 -9.998063920034967 -4.104141882764154 -1 6 -15
246 1 5 0.053 -10.168351373788825 -9.720465786194328 -2.547982981637027 0 7 -14
2574 1 5 0.1268 -11.387070557195411 -12.747815186090918 -3.6008195920365225 0 7 -15
2555 1 3 0 -10.55835330702956 -13.351572211794732 -1.7472877302197176 0 7 -15
2579 1 5 0.053 -12.647098395628833 -12.908632020681766 -1.632199299030681 0 7 -15
2556 1 3 -0.1268 -10.482253087563844 -13.095511260222807 -3.113037486766684 0 7 -15
2581 1 6 0.4241 -12.468630840695134 -10.786637606670116 -1.4020511927481039 0 7 -15
1646 1 3 -0.1268 -14.333539199106959 -15.171766566632229 -1.422796462475418 0 8 -15
1684 1 5 0.053 -15.780394770303836 -12.974035458163007 -1.663181911250998 0 8 -15
2562 1 9 -0.4506 -11.8145119429528 -10.406346929419346 -0.7476231437656793 0 7 -15
913 1 3 0 -15.422933331089677 -11.056011203603855 -6.943279900802548 0 7 -13
919 1 9 -0.4506 -15.441927266085552 -12.48048374915516 -4.9800788897154415 0 7 -13
905 1 3 0 -14.441463123169033 -14.787523157094927 -8.273964146408149 0 7 -13
2560 1 1 -0.106 -11.888957349250315 -13.327381949382277 -1.0497722730356465 0 7 -15
225 1 1 -0.106 -9.115119211264776 -9.499443647318476 -2.843811628814798 0 7 -14
938 1 5 0.053 -13.385034413432543 -10.599569743143043 -7.722735367658377 0 7 -13
933 1 5 0.1268 -15.564779127950661 -9.692001115669736 -8.64108352216691 0 7 -13
209 1 3 0 -8.787260625817332 -10.88006273019198 -6.442326031850479 0 7 -14
2554 1 3 -0.1268 -9.38432149063905 -13.775001555560678 -1.130622852461336 0 7 -15
2557 1 3 -0.1268 -9.268755973409366 -13.258531271467561 -3.792486141341165 0 7 -15
929 1 5 0.1268 -15.459348526304508 -12.9488738066743 -8.488222118336424 0 7 -13
2575 1 5 0.1268 -9.14775046519571 -13.137706042612386 -4.891521352166677 0 7 -15
211 1 3 0 -8.685841919301737 -10.115699053449234 -4.112391982110523 0 7 -14
927 1 1 -0.106 -11.048137856567232 -15.63707165463514 -6.824856515381359 0 7 -13
217 1 3 0 -8.40502153035482 -11.356903495879848 -8.828171524523244 0 7 -14
1664 1 1 -0.106 -15.428078490716452 -13.09233899659897 -0.5766393180246006 0 8 -15
1641 1 3 0 -14.755644091161162 -14.474939671933019 -0.26686872229672076 0 8 -15
233 1 5 0.1268 -9.20332664303601 -13.281361155139898 -8.919692031231788 0 7 -14