LAMMPS data file via write_data, version 2 Aug 2023, timestep = 5000000, units = real

4158 atoms
9 atom types
4356 bonds
8 bond types
7128 angles
12 angle types
10815 dihedrals
14 dihedral types
2904 impropers
7 improper types

-18.930998116835426 18.930998116835426 xlo xhi
-16.674658747870414 16.674658747870414 ylo yhi
-16.49834670496191 16.49834670496191 zlo zhi

Masses

1 12.01115
2 12.01115
3 12.01115
4 12.01115
5 1.00797
6 1.00797
7 1.00797
8 15.9994
9 15.9994

Pair Coeffs # lj/class2/coul/long

1 0.054 4.01
2 0.054 4.01
3 0.064 4.01
4 0.064 4.01
5 0.02 2.3
6 0.013 1.098
7 0.013 1.098
8 0.26 3.61
9 0.24 3.535

Bond Coeffs # class2

1 1.501 321.902 -521.821 572.163
2 1.101 345 -691.89 844.6
3 1.42 400.395 -835.195 1313.01
4 1.417 470.836 -627.618 1327.63
5 1.0982 372.825 -803.453 894.317
6 1.3768 428.88 -738.235 1114.97
7 0.965 532.506 -1282.9 2004.77
8 0.97 563.28 -1428.22 1902.12

Angle Coeffs # class2

1 120.05 44.7148 -22.7352 0
2 105.8 52.7061 -12.109 -9.8681
3 111 44.3234 -9.4454 0
4 111 44.3234 -9.4454 0
5 110.5 46 0 0
6 118.9 61.0226 -34.9931 0
7 117.94 35.1558 -12.4682 0
8 123.42 73.6781 -21.6787 0
9 108.19 53.125 -8.5016 0
10 107.66 39.641 -12.921 -2.4318
11 108.728 58.5446 -10.8088 -12.4006
12 103.7 49.84 -11.6 -8

BondBond Coeffs

1 12.0676 1.501 1.417
2 -9.6879 1.42 0.965
3 0 1.501 1.501
4 2.9168 1.501 1.101
5 0 1.501 1.42
6 68.2856 1.417 1.417
7 1.0795 1.417 1.0982
8 48.4754 1.417 1.3768
9 20.6577 1.3768 0.965
10 5.3316 1.101 1.101
11 23.1979 1.101 1.42
12 -9.5 0.97 0.97

BondAngle Coeffs

1 47.0579 31.0771 1.501 1.417
2 28.58 18.9277 1.42 0.965
3 0 0 1.501 1.501
4 26.4608 11.7717 1.501 1.101
5 0 0 1.501 1.42
6 28.8708 28.8708 1.417 1.417
7 20.0033 24.2183 1.417 1.0982
8 58.479 107.681 1.417 1.3768
9 53.8614 23.9224 1.3768 0.965
10 18.103 18.103 1.101 1.101
11 4.6189 55.327 1.101 1.42
12 22.35 22.35 0.97 0.97

Dihedral Coeffs # class2

1 0 0 4.4072 0 0 0
2 0 0 1.559 0 0 0
3 0 0 3 0 0 0
4 -0.2802 0 -0.0678 0 -0.0122 0
5 0 0 0 0 0.13 0
6 8.3667 0 1.1932 0 0 0
7 0 0 3.9661 0 0 0
8 0 0 4.8498 0 0 0
9 -0.69 0 0.5097 0 0.0095 0
10 -0.2801 0 -0.0678 0 -0.0122 0
11 0.1863 0 -0.4338 0 -0.2121 0
12 0 0 1.8769 0 0 0
13 0 0 1.7234 0 0 0
14 0 0 0 0 0 0

AngleAngleTorsion Coeffs

1 -14.4097 120.05 118.9
2 4.4444 120.05 117.94
3 0 120.05 123.42
4 0 111 120.05
5 0 110.5 105.8
6 0 118.9 118.9
7 -4.8141 118.9 117.94
8 -21.0247 118.9 123.42
9 -4.6072 123.42 108.19
10 -5.8888 111 120.05
11 -10.5093 108.728 105.8
12 0.3598 117.94 117.94
13 4.2296 117.94 123.42
14 0 110.5 120.05

EndBondTorsion Coeffs

1 0 0.2421 0 0 -0.6918 0 1.501 1.417
2 0 -1.797 0 0 -0.4879 0 1.501 1.0982
3 0 0 0 0 0 0 1.501 1.3768
4 0 0 0 0 0 0 1.501 1.417
5 0 0 0 0 0 0 1.501 0.965
6 -0.1185 6.3204 0 -0.1185 6.3204 0 1.417 1.417
7 0 -6.8958 0 0 -0.4669 0 1.417 1.0982
8 0 0.2655 0 0 4.8905 0 1.417 1.3768
9 0.9 -1.3456 1.19 3.4132 0.5873 -0.1323 1.417 0.965
10 1.3997 0.7756 0 -0.5835 1.122 0.3978 1.101 1.417
11 -1.7554 1.3145 0.2263 0.2493 0.6803 0 1.101 0.965
12 0 -0.689 0 0 -0.689 0 1.0982 1.0982
13 0 -1.5867 0 0 4.2641 0 1.0982 1.3768
14 0 0 0 0 0 0 1.42 1.417

MiddleBondTorsion Coeffs

1 0 9.1792 0 1.417
2 0 3.9421 0 1.417
3 0 0 0 1.417
4 0 0 0 1.501
5 0 0 0 1.42
6 27.5989 -2.312 0 1.417
7 0 -1.1521 0 1.417
8 0 4.8255 0 1.417
9 1.158 3.2697 3.5132 1.3768
10 -5.5679 1.4083 0.301 1.501
11 0 0.9241 -0.5889 1.42
12 0 4.8228 0 1.417
13 0 5.5432 0 1.417
14 0 0 0 1.501

BondBond13 Coeffs

1 2.5085 1.501 1.417
2 0.8743 1.501 1.0982
3 0 1.501 1.3768
4 0 1.501 1.417
5 0 1.501 0.965
6 53 1.417 1.417
7 -6.2741 1.417 1.0982
8 -2.2436 1.417 1.3768
9 1.159 1.417 0.965
10 -3.4826 1.101 1.417
11 0 1.101 0.965
12 -1.7077 1.0982 1.0982
13 2.0517 1.0982 1.3768
14 0 1.42 1.417

AngleTorsion Coeffs

1 0 -4.4683 0 0 3.8987 0 120.05 118.9
2 0 -0.1242 0 0 3.4601 0 120.05 117.94
3 0 0 0 0 0 0 120.05 123.42
4 0 0 0 0 0 0 111 120.05
5 0 0 0 0 0 0 110.5 105.8
6 1.9767 1.0239 0 1.9767 1.0239 0 118.9 118.9
7 0 2.5014 0 0 2.7147 0 118.9 117.94
8 0 10.0155 0 0 1.7404 0 118.9 123.42
9 -5.136 -1.0122 0 4.6852 0.023 -0.598 123.42 108.19
10 4.6266 0.1632 0.0461 0.2251 0.6548 0.1237 111 120.05
11 -3.406 1.6396 0.0737 0 -0.281 -0.5944 108.728 105.8
12 0 2.4501 0 0 2.4501 0 117.94 117.94
13 0 1.8729 0 0 2.5706 0 117.94 123.42
14 0 0 0 0 0 0 110.5 120.05

Improper Coeffs # class2

1 7.8153 0
2 4.8912 0
3 13.0421 0
4 0 0
5 0 0
6 0 0
7 0 0

AngleAngle Coeffs

1 0 0 0 120.05 118.9 120.05
2 0 0 0 118.9 117.94 117.94
3 0 0 0 118.9 123.42 123.42
4 0 0 0 111 111 111
5 2.3794 3.0118 2.3794 111 111 107.66
6 0 0 0 111 108.728 110.5
7 2.4259 2.4259 2.1283 107.66 108.728 108.728

Atoms # full

3339 1 9 -0.4506 -15.65378845604333 -12.609621139875786 -13.585400893122907 -1 7 -13
3361 1 6 0.4241 -16.64190290668629 -12.832596807558794 -13.617165495994604 -1 7 -13
3359 1 5 0.053 -12.982847097657032 -13.115455486720396 -13.428390672483252 -1 7 -13
3333 1 3 -0.1268 -12.673206853994383 -10.205435509600463 -13.159047880800513 -1 7 -13
3338 1 1 -0.106 -12.830657455125854 -12.545956204543327 -12.5104923592824 -1 7 -13
286 1 6 0.4241 -14.198831276028265 -14.720502571951616 -12.546609295257134 0 7 -14
3334 1 3 0 -12.026858352832594 -11.309210680757912 -12.60373370491205 -1 7 -13
3331 1 3 0.0265 -15.45509677168448 -12.316307012665913 -12.239004555690865 -1 7 -13
3326 1 3 -0.1268 -14.134816407759253 -12.282322989505627 -11.726091179944554 -1 7 -13
3330 1 3 0 -16.5165929148896 -11.90661493109943 -11.405424399471944 -1 7 -13
3360 1 5 0.053 -12.314978755189685 -13.294375231900581 -11.891187147751523 -1 7 -13
289 1 5 0.053 -14.483646031954137 -14.570380507493216 -10.87616226292512 0 7 -14
3327 1 3 -0.1268 -13.914622753567887 -11.810582967989621 -10.42535274018418 -1 7 -13
3329 1 3 -0.1268 -16.2404106799368 -11.443654911358053 -10.113792481445145 -1 7 -13
3335 1 3 0.0265 -10.708527096113762 -11.216330787291309 -12.190087369531248 -1 7 -13
261 1 3 0 -10.63789369216701 -15.31654249117403 -9.600226504449298 0 7 -14
260 1 3 0.0265 -11.998160321397691 -15.366823409008278 -9.434801968663969 0 7 -14
3353 1 5 0.1268 -12.9661509734078 -11.674610626621394 -9.942894147613217 -1 7 -13
3328 1 3 0 -14.971681318601423 -11.388545209724779 -9.625848239669628 -1 7 -13
3355 1 5 0.1268 -17.05905721760462 -11.060577867070887 -9.504130989509346 -1 7 -13
3358 1 5 0.1268 -13.670671254502423 -10.161546741108129 -13.62799371974721 -1 7 -13
1212 1 1 -0.106 -16.111772945836076 -9.057086373914485 -15.3472342255815 0 7 -14
3349 1 1 -0.106 -17.898618761175975 -11.800701970934625 -11.863308616879035 -1 7 -13
269 1 9 -0.4506 -14.545753447448378 -15.249231721126675 -13.28298165548178 0 7 -14
3370 1 5 0.053 -17.958628332052147 -11.201149662188264 -12.73915554622484 -1 7 -13
3369 1 5 0.053 -18.664366078491636 -11.308750791796339 -11.130730018568247 -1 7 -13
2138 1 3 -0.1268 -18.52946471054173 -13.247056428035439 -12.177914873068552 1 8 -14
1195 1 3 0 -17.678681201279407 -9.352095337837307 -15.338892926259197 0 7 -14
3332 1 3 0 -12.006817380032185 -8.916714994088142 -13.218902129168844 -1 7 -13
290 1 5 0.053 -14.643588229019779 -15.55550966122412 -9.358300423109759 0 7 -14
3337 1 3 -0.1268 -10.746962363416172 -8.875404941543263 -12.764754562883315 -1 7 -13
271 1 1 -0.106 -14.316769556023512 -15.563816465235226 -10.442648146005798 0 7 -14
259 1 3 -0.1268 -12.789254373541446 -15.810214909322092 -10.472241742417797 0 7 -14
262 1 3 -0.1268 -10.060870043056944 -15.772611562745974 -10.74577607156391 0 7 -14
943 1 5 0.053 -18.131457465462525 -15.584012302564611 -8.905669048586539 0 7 -13
3340 1 9 -0.4506 -10.06217426316766 -12.278035843787109 -11.744769428029665 -1 7 -13
641 1 6 0.4241 -14.458172857423321 -9.332681725386658 -12.115382690884115 -1 7 -13
3336 1 3 0 -10.057230672724423 -9.97660548805061 -12.311813885841417 -1 7 -13
3812 129 7 0.41 -15.575025825930808 -14.304901525174856 -15.270953990102306 2 8 -13
3354 1 5 0.1268 -14.707662658681585 -11.020827669460832 -8.600230624773648 -1 7 -13
2160 98 8 -0.82 -12.879142406181813 -13.735688473444826 -15.745168603602215 2 8 -13
1231 1 5 0.053 -15.435872248043395 -9.866178225718254 -15.592143816295504 0 7 -14
292 1 5 0.053 -10.26342496788057 -15.603141430484307 -13.734629283017217 0 7 -14
1230 1 5 0.053 -15.893260310622075 -8.75697530376143 -14.296843306398163 0 7 -14
257 1 3 0 -10.788223499366264 -16.23124163429808 -11.791775257990071 0 7 -14
258 1 3 -0.1268 -12.163311419057617 -16.184649537594442 -11.652548124784117 0 7 -14
1194 1 3 -0.1268 -18.184339777466782 -10.362081906065404 -16.08879897499177 0 7 -14
2180 98 7 0.41 -12.092206173098297 -13.19771134460288 -15.699641772340355 2 8 -13
273 1 1 -0.106 -10.283155550974506 -16.57090351612177 -13.220667890515424 0 7 -14
2164 98 7 0.41 -12.534523348923283 -14.632843985007508 -15.530687320420743 2 8 -13
3791 129 8 -0.82 -15.437316728756429 -14.520233462953339 -16.234153874594046 2 8 -13
216 1 3 -0.1268 -9.932885096030217 -12.392488912671908 -8.325869522184847 0 7 -14
268 1 3 0.0265 -15.024575479042666 -16.40897948220661 -12.724276961652238 0 7 -14
1435 1 9 -0.4506 -10.302181471144026 -12.295352342196539 -16.341884111937002 -2 5 -14
1196 1 3 -0.1268 -18.522705344485015 -8.697030904145468 -14.456366250955368 0 7 -14
279 1 5 0.1268 -12.714378702253939 -16.30611024214909 -14.472965943517433 0 7 -14
217 1 3 0 -9.56331163609058 -11.062513407070217 -8.2986513043636 0 7 -14
1443 1 5 0.1268 -9.71057770983879 -12.777628715767655 -13.950854040874335 -2 5 -14
275 1 1 -0.106 -9.695357757253085 -14.809010202022687 -8.490573388553049 0 7 -14
639 1 5 0.053 -15.780719736106903 -8.596157204105731 -9.489193676473343 -1 7 -13
2927 113 7 0.41 -12.97259647299061 -9.438664571748795 -15.822803598353968 -1 8 -14
4140 129 7 0.41 -14.557856485276865 -14.14734593723353 -16.216025293199284 1 8 -13
267 1 3 0 -15.119055098180072 -16.54497850321083 -11.326142324290718 0 7 -14
622 1 9 -0.4506 -15.023861748218476 -8.562761374106561 -12.156541336745693 -1 7 -13
2161 1 5 0.1268 -18.704187616654373 -13.643889770235795 -10.062119479158717 1 8 -14
291 1 6 0.4241 -13.487450676558272 -14.790786371073326 -8.372665281431651 0 7 -14
281 1 5 0.1268 -12.735763207355918 -16.52919072144749 -12.490447487613201 0 7 -14
2279 1 3 0 -0.4946058789141041 -16.56959864077969 -12.682789856863115 -1 4 -15
3362 1 6 0.4241 -9.166726582137835 -12.052202363580786 -11.5432868186141 -1 7 -13
2291 1 9 -0.4506 -3.472618424297549 -16.144972792551478 -15.542855455751797 -1 4 -15
2314 1 5 0.053 -5.69926559753749 -16.307937742924487 -15.354927483384115 -1 4 -15
3736 1 3 -0.1268 -0.28796750561877005 -10.862872998180016 -13.50653462004449 -1 6 -14
2306 1 5 0.053 -0.32404381631798174 -14.8284083367528 -13.849030014711511 -1 4 -15
1422 1 3 -0.1268 -9.035917453737186 -13.315087174534114 -14.629953609611853 -2 5 -14
235 1 5 0.1268 -7.248359995968391 -14.09687886256872 -8.775810137424875 0 7 -14
2307 1 5 0.053 -0.9090790927448538 -16.1528349258814 -14.823585878368487 -1 4 -15
3756 1 5 0.1268 -1.3992397284009996 -10.99829355307393 -13.608002177303634 -1 6 -14
282 1 5 0.1268 -8.998052076585108 -15.710537811757547 -10.848371884984488 0 7 -14
3172 1 6 0.4241 -3.761416242199962 -15.873129232325418 -10.007073096556496 -1 6 -14
3152 1 9 -0.4506 -3.0025395808958795 -16.113658501465977 -9.447184377433452 -1 6 -14
3363 1 5 0.1268 -9.026468190635605 -9.813635389881554 -14.57695993430523 -1 7 -13
3367 1 5 0.053 -8.514307269116136 -10.347728966638524 -10.915517013528365 -1 7 -13
3347 1 1 -0.106 -8.636828724737462 -9.789021246742127 -11.867205459430565 -1 7 -13
237 1 5 0.053 -5.199644391763998 -11.151459629598484 -9.466313079347039 0 7 -14
3155 1 1 -0.106 -3.800467918583264 -13.360549993312782 -10.578947110782913 -1 6 -14
2298 1 5 0.1268 -5.801643309192723 -14.303836874369797 -12.107696379682391 -1 4 -15
3345 1 3 -0.1268 -5.335955865370682 -10.636968061753795 -13.47455317832443 -1 7 -13
2275 1 3 0 -2.340431573775202 -15.267575467886632 -13.526766450633238 -1 4 -15
2271 1 3 0 -4.694988306753883 -15.096639636717963 -13.820208403375291 -1 4 -15
2276 1 3 0.0265 -3.4556877295044988 -15.479173516450254 -14.331101671661733 -1 4 -15
1424 1 3 0 -6.962056511139911 -14.559699145336895 -15.165777322416409 -2 5 -14
3341 1 3 0 -6.919185042471144 -10.16485122827463 -15.19967667364625 -1 7 -13
1423 1 3 -0.1268 -7.854048441302064 -13.946093371563482 -14.217834737540574 -2 5 -14
3346 1 3 0.0265 -5.635377749023233 -10.576406139119912 -14.82675965274143 -1 7 -13
3342 1 3 -0.1268 -7.9725909927755385 -10.071719983034125 -14.24869439573487 -1 7 -13
1444 1 5 0.1268 -7.478390201709951 -14.007148335899704 -13.162145029605327 -2 5 -14
2294 1 1 -0.106 -5.980624158999003 -15.607867355562538 -14.60758583557658 -1 4 -15
2272 1 3 -0.1268 -4.811671138760223 -14.534541179134294 -12.553866246572165 -1 4 -15
2274 1 3 -0.1268 -2.4804622397840888 -14.555899462216537 -12.311127539841312 -1 4 -15
3343 1 3 0 -7.6722021150385284 -10.220345697120411 -12.889061558144224 -1 7 -13
3344 1 3 -0.1268 -6.368829862531451 -10.501745114289506 -12.551075962032149 -1 7 -13
2273 1 3 0 -3.709567880413065 -14.201331673880091 -11.814541701556966 -1 4 -15
2296 1 5 0.1268 -1.6105793872262701 -14.516575171370885 -11.719761301129251 -1 4 -15
3176 1 5 0.053 -3.8672084997957423 -12.276644778363412 -10.88550171462721 -1 6 -14
3177 1 5 0.053 -4.754008570238199 -13.636144303772559 -10.03728606028193 -1 6 -14
3145 1 3 0 -2.669496118368887 -13.620516786335493 -9.646767814087612 -1 6 -14
3150 1 3 0.0265 -2.373636559819275 -14.906133505559877 -9.18191792433886 -1 6 -14
3167 1 5 0.1268 -2.0773836418773577 -11.57332991971781 -9.680399846141938 -1 6 -14
3146 1 3 -0.1268 -1.8060101266283404 -12.574735062126685 -9.29885618049105 -1 6 -14
2289 1 1 -0.106 -0.9509865240738158 -15.676987116388226 -13.818909623807498 -1 4 -15
3348 1 9 -0.4506 -4.686329534758917 -11.000043111743945 -15.75344654048767 -1 7 -13
3365 1 5 0.1268 -4.3723798552282584 -11.011653835346607 -13.16403628811485 -1 7 -13
3364 1 5 0.1268 -6.171423609239794 -10.566691709737913 -11.46361291776887 -1 7 -13
214 1 3 -0.1268 -7.814775178665071 -13.180193438435913 -8.950712107942316 0 7 -14
3546 62 8 -0.82 -2.97481965554579 -9.121952795503496 -11.431816870640422 2 4 -13
213 1 3 0 -7.2799353907951385 -11.89103878134998 -8.843388368940644 0 7 -14
219 1 9 -0.4506 -7.771462535800103 -9.546519571326264 -8.699686791549663 0 7 -14
218 1 3 0.0265 -8.19014931436421 -10.82511322592123 -8.629243194169316 0 7 -14
3366 1 5 0.053 -8.582339756256728 -8.68011814030407 -11.595789915673016 -1 7 -13
220 1 1 -0.106 -5.690847600806826 -11.7476477393426 -8.698828227223188 0 7 -14
296 1 5 0.053 -8.852928934006737 -15.530901942010482 -8.396466899652404 0 7 -14
215 1 3 0 -9.094011822389199 -13.44271104324605 -8.684622900398715 0 7 -14
1220 62 7 0.41 -3.151852258305782 -9.12225596270222 -10.446500284923303 2 7 -14
236 1 6 0.4241 -6.863702154667211 -9.579904082070271 -8.387261413382548 0 7 -14
3757 1 5 0.1268 -0.21510215442466674 -12.997674420553313 -13.457688980833332 -1 6 -14
2313 1 5 0.053 -6.412026271835403 -16.235516448565175 -13.835809426573283 -1 4 -15
1427 1 3 0.0265 -9.20101397070448 -13.069200588737603 -16.01251233337987 -2 5 -14
3759 1 5 0.053 -1.6227555022285145 -8.727236163193972 -13.490778313695273 -1 6 -14
3368 1 6 0.4241 -4.882906166585492 -11.884698274191244 -16.06264052642988 -1 7 -13
3739 1 1 -0.106 -0.5139994657741873 -8.398994327592204 -13.412988645105834 -1 6 -14
238 1 5 0.053 -5.1619795016460355 -12.757058038916915 -8.695303803691967 0 7 -14
3149 1 3 -0.1268 -1.2638982824652416 -15.07418072342716 -8.318749971474137 -1 6 -14
3147 1 3 0 -0.8523764833713905 -12.71635983372461 -8.285694779268406 -1 6 -14
3754 1 6 0.4241 -2.745897269884498 -8.374153421288646 -16.42868802359945 -1 6 -14
1145 55 7 0.41 -4.023824771346973 -14.436793095136851 -16.49215561468759 -2 7 -15
1049 1 5 0.053 -18.736737853937097 -0.26602937393801085 -11.538600396174601 0 6 -14
3048 1 3 -0.1268 -12.509751163283081 -1.2178974147766066 -8.293123636331067 -2 6 -13
2359 1 5 0.053 -13.708844570443112 -4.183051366422893 -15.931555910913566 1 3 -14
1207 1 3 0 -15.272961679673877 -5.4886422325801725 -16.272051279618502 0 7 -14
1203 1 3 0 -15.79810710501002 -7.879380128072034 -16.213501347463453 0 7 -14
1412 1 6 0.4241 -18.67046265813096 -3.077421894365937 -11.737396839199945 -1 7 -13
636 1 6 0.4241 -12.942804873556334 -7.606317805908207 -8.917055173537108 -1 7 -13
300 16 7 0.41 -14.000147292475305 -0.7738887354381614 -12.970614110573592 0 6 -15
3058 1 9 -0.4506 -14.478978544039347 -0.6754924418643284 -9.59076319881255 -2 6 -13
3053 1 3 0.0265 -13.107507778171666 -0.7128607438322696 -9.444616701847512 -2 6 -13
3077 1 6 0.4241 -14.801759629250267 -0.8976420196745085 -10.55100476337072 -2 6 -13
3405 16 7 0.41 -15.450863495045745 -1.3116351484973077 -13.126331457680234 0 6 -15
2352 1 5 0.053 -18.40365572649968 -0.7332504575904579 -13.712370077589402 1 3 -14
278 16 8 -0.82 -14.812160931709347 -1.0451492502397617 -12.417055924255667 0 6 -15
645 1 5 0.053 -13.62154169966718 -7.863780507743547 -14.121642269257944 -1 7 -13
2334 1 1 -0.106 -18.071794496474315 -0.30997638341200684 -14.703840772907098 1 3 -14
1048 1 5 0.053 -17.32945591356438 -0.7028681419159071 -10.542358109698505 0 6 -14
643 1 5 0.053 -12.448055124224423 -3.3696778165605163 -9.737476813825097 -1 7 -13
2494 1 5 0.053 -10.792768127266294 -1.2557327053415168 -13.671002466168662 0 6 -14
612 1 3 -0.1268 -12.354774070826227 -6.016864507971796 -11.78833460124277 -1 7 -13
610 1 3 0.0265 -14.2260436179518 -7.548056879966095 -11.602012456758956 -1 7 -13
1225 1 5 0.1268 -15.52092807978738 -6.733918020269012 -14.534993397801207 0 7 -14
1208 1 3 -0.1268 -15.621979565264338 -6.677803402400739 -15.5745721937337 0 7 -14
625 1 1 -0.106 -12.669787459943382 -7.684115665878922 -13.615670184598095 -1 7 -13
2336 1 9 -0.4506 -16.781701610883445 -2.9606325269547416 -13.922976175746275 1 3 -14
2321 1 3 0.0265 -16.42247744346223 -2.2658632126253107 -15.107916930727498 1 3 -14
2358 1 5 0.053 -14.752882619936088 -4.333339156788227 -14.498133830524523 1 3 -14
2355 1 6 0.4241 -17.475759050300354 -3.538706253841763 -14.110288121307635 1 3 -14
646 1 5 0.053 -12.131328121577665 -7.028719510246908 -14.320556816938137 -1 7 -13
2474 1 1 -0.106 -10.715647598951502 -1.6785657835492707 -14.711472904349664 0 6 -14
2727 1 3 0 -10.430591449349071 -3.140358069717214 -14.66507302146938 0 6 -14
611 1 3 0 -13.125369212141859 -7.01910371511992 -12.279651465898386 -1 7 -13
632 1 5 0.1268 -11.507059100526916 -5.590795566426294 -12.362485661796379 -1 7 -13
607 1 3 0 -12.684722401797217 -5.417094421891184 -10.578301809451041 -1 7 -13
609 1 3 -0.1268 -14.585889054053471 -7.00109887626221 -10.377507583548592 -1 7 -13
642 1 5 0.053 -11.008711284815778 -3.914293738005508 -10.59822143553771 -1 7 -13
608 1 3 -0.1268 -13.818117385147321 -5.9037091795413446 -9.967815049641782 -1 7 -13
2320 1 3 0 -16.905931722142487 -0.9668344486814977 -15.470606209055665 1 3 -14
2728 1 3 -0.1268 -10.780400267788938 -3.953637470977718 -15.718158996178882 0 6 -14
640 1 5 0.053 -16.597666986405677 -7.041736291149645 -9.737974980069366 -1 7 -13
621 1 1 -0.106 -15.661514078894172 -7.503984260133748 -9.402968775193283 -1 7 -13
623 1 1 -0.106 -11.815936702540771 -4.31049296155545 -9.918881152073665 -1 7 -13
2339 1 1 -0.106 -14.754912230382427 -4.235954966599563 -15.63434702042873 1 3 -14
1411 1 5 0.053 -17.98643553381276 -5.285735223378273 -10.40779482837928 -1 7 -13
3650 74 7 0.41 -16.3493803473271 -3.3807526115001867 -9.717144158017692 -1 6 -14
1485 74 8 -0.82 -16.782408950200427 -3.039649444009001 -10.529049926245833 -2 6 -13
1505 74 7 0.41 -15.96676467365219 -2.6508984375602065 -10.927802183809039 -2 6 -13
631 1 5 0.1268 -13.97866437368723 -5.473591874001698 -8.989915856174488 -1 7 -13
2729 1 3 0 -10.400379707986245 -5.259592069556193 -15.801750359218403 0 6 -14
2316 1 3 0 -15.466224026558544 -2.8749546360280647 -15.960831856705173 1 3 -14
2493 1 5 0.053 -11.751414044011458 -1.513716506484199 -15.064965755546142 0 6 -14
3052 1 3 -0.1268 -12.310657327565117 -0.3122787947682184 -10.519056687465255 -2 6 -13
3357 1 5 0.1268 -10.3307469224002 -7.894209871914368 -12.572481066237668 -1 7 -13
2451 1 3 0 -9.748036364886897 -0.7961186413378663 -15.415015896857351 0 6 -14
3051 1 3 -0.1268 -10.89397435720609 -0.29186868597345494 -10.378388874389145 -2 6 -13
1217 1 5 0.1268 -18.11279042126021 -8.002851470137443 -13.735106065280204 0 7 -14
3050 1 3 0 -10.281893983081892 -0.8761005441179677 -9.226965947530509 -2 6 -13
2730 1 3 -0.1268 -9.721378535697552 -5.751474965888191 -14.682110689373395 0 6 -14
2732 1 3 0.0265 -9.78804099518953 -3.699556211120612 -13.517286031243067 0 6 -14
3435 1 3 -0.1268 -18.732297534830582 -0.8974474186109163 -8.264695306688063 -1 7 -13
605 1 3 0 -11.141549734690575 -4.858334416069624 -8.630070244128452 -1 7 -13
2742 1 9 -0.4506 -9.559404416408194 -2.97486924330709 -12.41373044383147 0 6 -14
2751 1 5 0.1268 -9.562544368334535 -6.82908160730018 -14.696596209566623 0 6 -14
1027 1 1 -0.106 -18.25975688142335 -0.1477173883052849 -10.570184078918214 0 6 -14
606 1 3 -0.1268 -9.801836947957806 -5.182866660388143 -8.530673069644031 -1 7 -13
132 1 5 0.1268 -3.4066433246251613 -0.9347858456052798 -14.51038501408591 -1 6 -13
826 44 8 -0.82 -6.72347401619869 -3.5453683071380304 -16.381836159489946 0 6 -13
3959 110 7 0.41 -1.8407152455009772 -5.677208108434128 -11.666777436774966 0 6 -14
2761 1 6 0.4241 -9.306251566199428 -2.0925460623218566 -12.74499915118651 0 6 -14
2758 1 5 0.053 -8.55990425553495 -5.086552784096263 -11.606958687490355 0 6 -14
3047 1 3 0.0265 -7.159822212183151 -0.9651954493295136 -10.815180079325916 -2 6 -13
2762 1 6 0.4241 -2.9953487028793315 -6.237465713107293 -14.677115396798222 0 6 -14
131 1 5 0.1268 -0.16887252636444217 -0.037220414736527374 -11.903206352982163 -1 6 -13
125 1 1 -0.106 -5.370218494634383 -0.9793894057535422 -12.811012966610082 -1 6 -13
2477 104 7 0.41 -1.4300377146360113 -3.620164637520169 -13.105588371801057 0 6 -15
847 44 7 0.41 -7.052969808664264 -4.265208090934969 -15.853792172147326 0 6 -13
2731 1 3 0 -9.356321055828653 -5.026294569828794 -13.5569183995776 0 6 -14
3758 1 5 0.053 -0.3520696925485325 -7.7422854044417395 -12.541978983661522 -1 6 -14
2540 104 7 0.41 -0.9570389636866174 -3.0722132347622875 -11.674432432219156 0 6 -15
3732 1 9 -0.4506 -2.5025312779190862 -7.998918113382267 -15.529929888735353 -1 6 -14
2752 1 5 0.1268 -4.701227174401506 -3.250636086189431 -13.843382637236598 0 6 -14
2738 1 3 0.0265 -4.51639643922042 -5.453738034404703 -14.060465092085936 0 6 -14
1717 1 5 0.1268 -5.205400118351685 -5.078265792146018 -10.97961854431665 0 6 -14
2736 1 3 -0.1268 -6.442542984860818 -6.704443437538595 -13.465331580256606 0 6 -14
3055 1 1 -0.106 -8.818075960761428 -1.0065614663319682 -8.975323928478732 -2 6 -13
2754 1 5 0.1268 -6.937171731756134 -7.675792408061451 -13.410448668249513 0 6 -14
2743 1 9 -0.4506 -3.2460226968855217 -5.329079715805483 -14.47477003538592 0 6 -14
1727 1 6 0.4241 -3.8334282205478427 -2.678982612574597 -10.030227201139558 0 6 -14
1700 1 3 -0.1268 -5.2876432427310665 -5.00495067045215 -9.894680339800646 0 6 -14
1305 66 8 -0.82 -2.1918618628555535 -7.079732769518733 -8.527341963338868 -1 7 -14
2734 1 3 -0.1268 -6.426751007942979 -4.293339178124585 -13.183181534128986 0 6 -14
3753 1 6 0.4241 -2.6661550702116052 -4.317407047049139 -16.042011604738303 -1 6 -14
108 1 3 -0.1268 -1.1997783845277503 -0.36552473077164294 -12.075712872638562 -1 6 -13
3073 1 5 0.053 -8.448204686254396 -1.9927689570528848 -8.84744803477805 -2 6 -13
3057 1 9 -0.4506 -6.882353881534058 -2.3105582611318702 -10.549300780023035 -2 6 -13
2520 104 8 -0.82 -0.9976222460424822 -3.876752944347313 -12.237675935850962 0 6 -15
121 1 1 -0.106 -1.3498789331288883 -0.38123077406130434 -9.542967064551544 -1 6 -13
107 1 3 -0.1268 -1.6299697122729313 -0.7638092950366779 -13.34053692775558 -1 6 -13
109 1 3 0 -2.0210314154338285 -0.4414182165769809 -10.977539060051441 -1 6 -13
139 1 5 0.053 -1.769247617877184 -1.1457281697896775 -8.825522358081844 -1 6 -13
2755 1 5 0.1268 -4.666246735675953 -7.5809482459719355 -14.262456082504745 0 6 -14
1699 1 3 0.0265 -4.462962659601459 -4.169319945367931 -9.19835122104681 0 6 -14
2737 1 3 -0.1268 -5.168054456181531 -6.622810376292248 -14.05718802579494 0 6 -14
3046 1 3 0 -8.010765587713944 -0.24448325171623608 -10.038966502172869 -2 6 -13
111 1 3 0 -3.9057003294978276 -0.7259357385123355 -12.442331828182166 -1 6 -13
3567 62 7 0.41 -2.6269656442116407 -8.212758067893354 -11.531624266209443 2 4 -13
630 1 5 0.1268 -9.095923888434 -4.820816831686525 -9.306955879387367 -1 7 -13
2733 1 3 -0.1268 -5.146283876936714 -4.262821364362532 -13.710700750425715 0 6 -14
1325 66 7 0.41 -2.440344288346818 -6.867004394691762 -9.519190857326638 -1 7 -14
2759 1 5 0.053 -8.706546522380064 -6.644676262286573 -12.353919666320394 0 6 -14
142 1 5 0.053 -1.2352452624109205 -1.3814889211091046 -15.345140402801247 -1 6 -13
2753 1 5 0.1268 -6.912478177030801 -3.4252571229902866 -12.800159845626585 0 6 -14
3042 1 3 0 -6.4663920028454775 -0.3346004805583327 -11.9153587540962 -2 6 -13
3076 1 6 0.4241 -7.719658810436336 -2.724126881162647 -10.48248983197223 -2 6 -13
1718 1 5 0.1268 -7.101902554940207 -6.277193783387782 -10.003812708509905 0 6 -14
122 1 9 -0.4506 -4.16002604739827 -0.6472656047909666 -9.998670924606376 -1 6 -13
110 1 3 0.0265 -3.386787129742224 -0.5847349335028795 -11.182341941792908 -1 6 -13
2659 110 7 0.41 -3.2692384719859664 -5.879031401600221 -11.44127034673189 0 6 -14
1708 1 9 -0.4506 -3.3859966875652336 -3.562181481138879 -9.827352634106415 0 6 -14
1701 1 3 -0.1268 -6.440387813511116 -5.603452955016117 -9.3320276924718 0 6 -14
141 1 6 0.4241 -5.1106130432000985 -0.54838829452693 -10.196972022117627 -1 6 -13
2740 1 1 -0.106 -8.504636425242737 -5.617160135493323 -12.547053236080627 0 6 -14
123 1 1 -0.106 -0.6669370589819117 -0.8495430340392858 -14.534495499308397 -1 6 -13
3727 1 3 0.0265 -1.2756013516825035 -7.304136072996728 -15.628115430535228 -1 6 -14
3938 110 8 -0.82 -2.4803082461841335 -6.422989308243295 -11.573816002655958 0 6 -14
2735 1 3 0 -7.106763037006818 -5.536520678472213 -12.967482046756372 0 6 -14
3728 1 3 0 -0.2707146168429908 -7.471951036281823 -14.621559408860508 -1 6 -14
146 1 5 0.053 -5.528202691029572 -2.0390132172030757 -12.836242816356059 -1 6 -13
112 1 3 -0.1268 -2.995769015131815 -0.8506099598903933 -13.499806242584876 -1 6 -13
145 1 5 0.053 -5.490223886068328 -0.6910242309772396 -13.897572631341806 -1 6 -13
3993 66 7 0.41 -1.3437304754042678 -6.5351860320826205 -8.430989596452756 -1 7 -14
904 1 3 -0.1268 -16.66317884903153 -13.77173785151231 -7.442934722596572 0 7 -13
903 1 3 0 -15.864043207564537 -12.926726972287211 -6.6925862868483605 0 7 -13
938 1 5 0.053 -15.833341677470514 -10.96412439975688 -7.362367395628095 0 7 -13
920 1 1 -0.106 -16.17390754102618 -11.539692412473435 -6.4759848523241 0 7 -13
902 1 3 0.0265 -14.797486957728 -13.624622825766576 -5.976441518455749 0 7 -13
937 1 5 0.053 -15.76293622734144 -11.055972890631853 -5.591784162808434 0 7 -13
901 1 3 0 -14.638928266003921 -15.011537307056793 -5.989600092038751 0 7 -13
924 1 9 -0.4506 -13.921914931667283 -12.783468852203246 -5.36147794213495 0 7 -13
944 1 6 0.4241 -13.395356392896097 -13.344018492400004 -4.789922810437487 0 7 -13
222 1 9 -0.4506 -12.530480934401131 -9.490285105746544 -5.506236947495832 0 7 -14
241 1 6 0.4241 -12.563924467651663 -8.829418079452697 -6.275096665265817 0 7 -14
949 1 5 0.053 -12.847023262857858 -14.709587121724425 -4.883774586403334 0 7 -13
906 1 3 -0.1268 -15.559560807080963 -15.733593399503171 -6.691051089683551 0 7 -13
2745 109 8 -0.82 -16.034400185629604 -10.88591444335492 -2.592469883538696 0 6 -16
210 1 3 0.0265 -11.242243075367135 -9.810871667121969 -5.134834784028692 0 7 -14
1667 1 5 0.1268 -17.346936881659783 -14.845978492913563 -2.3766430862110877 0 8 -15
2555 1 3 0 -12.49185415508764 -14.038102962365196 -1.585246764046813 0 7 -15
2579 1 5 0.053 -14.054688517113485 -12.49466858116622 -1.8735210206939232 0 7 -15
1646 1 3 -0.1268 -17.627365252902187 -15.170492416768536 -1.317303800306842 0 8 -15
209 1 3 0 -10.247631007598295 -9.981254416038123 -6.103619095326254 0 7 -14
225 1 1 -0.106 -12.021789962922082 -9.5404867903837 -2.764086031202387 0 7 -14
211 1 3 0 -10.943720928106435 -9.88927813508339 -3.773571856220455 0 7 -14
2578 1 5 0.053 -14.748471788086722 -14.221493316392134 -1.458501898664128 0 7 -15
905 1 3 0 -16.61068165145783 -15.131038551507636 -7.346939574160567 0 7 -13
913 1 3 0 -17.68168396730982 -11.352092774712567 -6.480586013532866 0 7 -13
2657 109 7 0.41 -16.83759578772058 -11.4234348990108 -2.794352962007416 -1 6 -15
245 1 5 0.053 -11.939718266238684 -10.261698003536303 -1.967993761989577 0 7 -14
2765 109 7 0.41 -15.716442993502184 -10.788908218291814 -3.479932648432367 0 6 -16
927 1 1 -0.106 -13.466137044053745 -15.596319299623982 -5.162762805518922 0 7 -13
2560 1 1 -0.106 -13.917028000813229 -13.478282258100037 -1.252089719816901 0 7 -15
2581 1 6 0.4241 -14.806001040708605 -10.68301417493239 -1.3006568371984688 0 7 -15
2556 1 3 -0.1268 -11.66078489642555 -13.42827333659827 -2.5342576165519013 0 7 -15
2574 1 5 0.1268 -11.884982973572384 -12.518705366064008 -3.1315797403870036 0 7 -15
2553 1 3 -0.1268 -10.818580733509135 -15.788660949954053 -1.303259322692135 0 7 -15
246 1 5 0.053 -13.004868387328074 -9.73797833565363 -3.2470095934711853 0 7 -14
919 1 9 -0.4506 -17.94437542870263 -12.884284950053825 -4.530028181310227 0 7 -13
2557 1 3 -0.1268 -10.408216516073592 -13.926533072942968 -2.8848775557160593 0 7 -15
2558 1 3 0.0265 -9.98555960427218 -15.107388640304332 -2.2226804502105395 0 7 -15
923 1 1 -0.106 -17.761450287108588 -15.931853446097941 -7.884768492817917 0 7 -13
907 1 3 0 -18.915944724019674 -15.919772545551917 -6.889326330338829 0 7 -13
948 1 5 0.053 -12.728824287234861 -16.310693137330592 -5.591613311768384 0 7 -13
918 1 3 0.0265 -18.40036882091373 -12.082318073388445 -5.604224710780308 0 7 -13
1664 1 1 -0.106 -17.61730180164759 -12.8965753022953 -0.45220718689744643 0 8 -15