LAMMPS data file via write_data, version 2 Aug 2023, timestep = 150000, units = real

4158 atoms
9 atom types
4356 bonds
8 bond types
7128 angles
12 angle types
10815 dihedrals
14 dihedral types
2904 impropers
7 improper types

-17.209998288032207 17.209998288032207 xlo xhi
-17.209998288032207 17.209998288032207 ylo yhi
-17.209998288032207 17.209998288032207 zlo zhi

Masses

1 12.01115
2 12.01115
3 12.01115
4 12.01115
5 1.00797
6 1.00797
7 1.00797
8 15.9994
9 15.9994

Pair Coeffs # lj/class2/coul/long

1 0.054 4.01
2 0.054 4.01
3 0.064 4.01
4 0.064 4.01
5 0.02 2.3
6 0.013 1.098
7 0.013 1.098
8 0.26 3.61
9 0.24 3.535

Bond Coeffs # class2

1 1.501 321.902 -521.821 572.163
2 1.101 345 -691.89 844.6
3 1.42 400.395 -835.195 1313.01
4 1.417 470.836 -627.618 1327.63
5 1.0982 372.825 -803.453 894.317
6 1.3768 428.88 -738.235 1114.97
7 0.965 532.506 -1282.9 2004.77
8 0.97 563.28 -1428.22 1902.12

Angle Coeffs # class2

1 120.05 44.7148 -22.7352 0
2 105.8 52.7061 -12.109 -9.8681
3 111 44.3234 -9.4454 0
4 111 44.3234 -9.4454 0
5 110.5 46 0 0
6 118.9 61.0226 -34.9931 0
7 117.94 35.1558 -12.4682 0
8 123.42 73.6781 -21.6787 0
9 108.19 53.125 -8.5016 0
10 107.66 39.641 -12.921 -2.4318
11 108.728 58.5446 -10.8088 -12.4006
12 103.7 49.84 -11.6 -8

BondBond Coeffs

1 12.0676 1.501 1.417
2 -9.6879 1.42 0.965
3 0 1.501 1.501
4 2.9168 1.501 1.101
5 0 1.501 1.42
6 68.2856 1.417 1.417
7 1.0795 1.417 1.0982
8 48.4754 1.417 1.3768
9 20.6577 1.3768 0.965
10 5.3316 1.101 1.101
11 23.1979 1.101 1.42
12 -9.5 0.97 0.97

BondAngle Coeffs

1 47.0579 31.0771 1.501 1.417
2 28.58 18.9277 1.42 0.965
3 0 0 1.501 1.501
4 26.4608 11.7717 1.501 1.101
5 0 0 1.501 1.42
6 28.8708 28.8708 1.417 1.417
7 20.0033 24.2183 1.417 1.0982
8 58.479 107.681 1.417 1.3768
9 53.8614 23.9224 1.3768 0.965
10 18.103 18.103 1.101 1.101
11 4.6189 55.327 1.101 1.42
12 22.35 22.35 0.97 0.97

Dihedral Coeffs # class2

1 0 0 4.4072 0 0 0
2 0 0 1.559 0 0 0
3 0 0 3 0 0 0
4 -0.2802 0 -0.0678 0 -0.0122 0
5 0 0 0 0 0.13 0
6 8.3667 0 1.1932 0 0 0
7 0 0 3.9661 0 0 0
8 0 0 4.8498 0 0 0
9 -0.69 0 0.5097 0 0.0095 0
10 -0.2801 0 -0.0678 0 -0.0122 0
11 0.1863 0 -0.4338 0 -0.2121 0
12 0 0 1.8769 0 0 0
13 0 0 1.7234 0 0 0
14 0 0 0 0 0 0

AngleAngleTorsion Coeffs

1 -14.4097 120.05 118.9
2 4.4444 120.05 117.94
3 0 120.05 123.42
4 0 111 120.05
5 0 110.5 105.8
6 0 118.9 118.9
7 -4.8141 118.9 117.94
8 -21.0247 118.9 123.42
9 -4.6072 123.42 108.19
10 -5.8888 111 120.05
11 -10.5093 108.728 105.8
12 0.3598 117.94 117.94
13 4.2296 117.94 123.42
14 0 110.5 120.05

EndBondTorsion Coeffs

1 0 0.2421 0 0 -0.6918 0 1.501 1.417
2 0 -1.797 0 0 -0.4879 0 1.501 1.0982
3 0 0 0 0 0 0 1.501 1.3768
4 0 0 0 0 0 0 1.501 1.417
5 0 0 0 0 0 0 1.501 0.965
6 -0.1185 6.3204 0 -0.1185 6.3204 0 1.417 1.417
7 0 -6.8958 0 0 -0.4669 0 1.417 1.0982
8 0 0.2655 0 0 4.8905 0 1.417 1.3768
9 0.9 -1.3456 1.19 3.4132 0.5873 -0.1323 1.417 0.965
10 1.3997 0.7756 0 -0.5835 1.122 0.3978 1.101 1.417
11 -1.7554 1.3145 0.2263 0.2493 0.6803 0 1.101 0.965
12 0 -0.689 0 0 -0.689 0 1.0982 1.0982
13 0 -1.5867 0 0 4.2641 0 1.0982 1.3768
14 0 0 0 0 0 0 1.42 1.417

MiddleBondTorsion Coeffs

1 0 9.1792 0 1.417
2 0 3.9421 0 1.417
3 0 0 0 1.417
4 0 0 0 1.501
5 0 0 0 1.42
6 27.5989 -2.312 0 1.417
7 0 -1.1521 0 1.417
8 0 4.8255 0 1.417
9 1.158 3.2697 3.5132 1.3768
10 -5.5679 1.4083 0.301 1.501
11 0 0.9241 -0.5889 1.42
12 0 4.8228 0 1.417
13 0 5.5432 0 1.417
14 0 0 0 1.501

BondBond13 Coeffs

1 2.5085 1.501 1.417
2 0.8743 1.501 1.0982
3 0 1.501 1.3768
4 0 1.501 1.417
5 0 1.501 0.965
6 53 1.417 1.417
7 -6.2741 1.417 1.0982
8 -2.2436 1.417 1.3768
9 1.159 1.417 0.965
10 -3.4826 1.101 1.417
11 0 1.101 0.965
12 -1.7077 1.0982 1.0982
13 2.0517 1.0982 1.3768
14 0 1.42 1.417

AngleTorsion Coeffs

1 0 -4.4683 0 0 3.8987 0 120.05 118.9
2 0 -0.1242 0 0 3.4601 0 120.05 117.94
3 0 0 0 0 0 0 120.05 123.42
4 0 0 0 0 0 0 111 120.05
5 0 0 0 0 0 0 110.5 105.8
6 1.9767 1.0239 0 1.9767 1.0239 0 118.9 118.9
7 0 2.5014 0 0 2.7147 0 118.9 117.94
8 0 10.0155 0 0 1.7404 0 118.9 123.42
9 -5.136 -1.0122 0 4.6852 0.023 -0.598 123.42 108.19
10 4.6266 0.1632 0.0461 0.2251 0.6548 0.1237 111 120.05
11 -3.406 1.6396 0.0737 0 -0.281 -0.5944 108.728 105.8
12 0 2.4501 0 0 2.4501 0 117.94 117.94
13 0 1.8729 0 0 2.5706 0 117.94 123.42
14 0 0 0 0 0 0 110.5 120.05

Improper Coeffs # class2

1 7.8153 0
2 4.8912 0
3 13.0421 0
4 0 0
5 0 0
6 0 0
7 0 0

AngleAngle Coeffs

1 0 0 0 120.05 118.9 120.05
2 0 0 0 118.9 117.94 117.94
3 0 0 0 118.9 123.42 123.42
4 0 0 0 111 111 111
5 2.3794 3.0118 2.3794 111 111 107.66
6 0 0 0 111 108.728 110.5
7 2.4259 2.4259 2.1283 107.66 108.728 108.728

Atoms # full

1231 1 5 0.053 -15.376815353793218 -10.073204581691964 -15.22045832695796 0 7 -14
1212 1 1 -0.106 -15.64624626441778 -9.05976654965333 -15.003028449067552 0 7 -14
3339 1 9 -0.4506 -14.103318645823464 -12.6182503388712 -13.62519516505756 -1 7 -13
3361 1 6 0.4241 -13.436395035735782 -12.269380535195072 -14.199081547015325 -1 7 -13
1195 1 3 0 -16.98534095677238 -8.939269357266383 -14.41108101564169 0 7 -14
3359 1 5 0.053 -11.789264932852337 -12.0913909274142 -13.913275360855414 -1 7 -13
1230 1 5 0.053 -14.859690078068608 -8.826196546445912 -14.322466596719117 0 7 -14
3358 1 5 0.1268 -12.567081986454342 -9.557949313600766 -13.2300292487119 -1 7 -13
3370 1 5 0.053 -16.432108596875146 -12.11248904539077 -12.89786734082525 -1 7 -13
3333 1 3 -0.1268 -11.515421289391258 -9.551250486570794 -12.919334283706636 -1 7 -13
3338 1 1 -0.106 -11.469878337759813 -12.071651308429772 -12.831242983440221 -1 7 -13
286 1 6 0.4241 -14.535973930281406 -14.938965447356498 -13.327695567771265 0 7 -14
3334 1 3 0 -10.837268848358043 -10.703556915380286 -12.69347110793995 -1 7 -13
3331 1 3 0.0265 -13.879382651815652 -12.321210568308434 -12.267089566723214 -1 7 -13
3349 1 1 -0.106 -16.397992938845277 -12.322644389684623 -11.820390781537963 -1 7 -13
3326 1 3 -0.1268 -12.614557065059692 -12.16036451729077 -11.772615768259596 -1 7 -13
3330 1 3 0 -14.94790083264897 -12.157689367692573 -11.348781155929363 -1 7 -13
3360 1 5 0.053 -10.736517428915166 -12.900554693677782 -12.771204573300441 -1 7 -13
269 1 9 -0.4506 -14.285088506775217 -15.691771704644294 -13.871555114336031 0 7 -14
258 1 3 -0.1268 -11.298239453222045 -15.771063667992511 -12.58513305872097 0 7 -14
257 1 3 0 -9.950874983373883 -15.962049328110979 -12.957032937050393 0 7 -14
271 1 1 -0.106 -13.229155707870316 -15.598079234691902 -10.99139441391026 0 7 -14
259 1 3 -0.1268 -11.682109029273494 -15.667484567643022 -11.272174762911533 0 7 -14
289 1 5 0.053 -13.629803488190255 -14.684329084767965 -11.454296266892989 0 7 -14
3327 1 3 -0.1268 -12.351457575369992 -11.758665075053258 -10.519802857679618 -1 7 -13
3329 1 3 -0.1268 -14.680054185071295 -11.928901919068977 -9.97829439431107 -1 7 -13
2137 1 3 -0.1268 -16.913870839725412 -14.73952568296658 -12.476171672111331 1 8 -14
3335 1 3 0.0265 -9.471667008518754 -10.599134746117699 -12.349469698012639 -1 7 -13
261 1 3 0 -9.358311506802355 -15.610381673093363 -10.665486516740337 0 7 -14
281 1 5 0.1268 -12.161733991642617 -15.615971547006456 -13.306314238789083 0 7 -14
260 1 3 0.0265 -10.73285871159894 -15.544958287375572 -10.298137140188294 0 7 -14
290 1 5 0.053 -13.42996393701717 -15.677803723990493 -9.911472897913129 0 7 -14
3353 1 5 0.1268 -11.310431363942108 -11.619499305193818 -10.200197788922171 -1 7 -13
292 1 5 0.053 -9.954636711586495 -15.269974817807293 -14.98248244069347 0 7 -14
273 1 1 -0.106 -9.644903414893818 -16.18746885020064 -14.363105088038273 0 7 -14
3328 1 3 0 -13.342120379703308 -11.670181556139399 -9.579803475097432 -1 7 -13
3355 1 5 0.1268 -15.474797772629062 -12.031708544116707 -9.22704750102876 -1 7 -13
3362 1 6 0.4241 -9.302257941696784 -12.4768344000613 -12.475185262084434 -1 7 -13
262 1 3 -0.1268 -8.978781291141244 -15.81929630230909 -11.946892117507103 0 7 -14
3336 1 3 0 -8.864589791645706 -9.369984362397819 -12.217783032372662 -1 7 -13
2138 1 3 -0.1268 -16.885812462952984 -13.70443158401442 -11.505873630361329 1 8 -14
272 1 9 -0.4506 -10.974128427602306 -15.386130579746382 -8.961687232681776 0 7 -14
291 1 6 0.4241 -11.774614560424148 -14.832358933122041 -8.823194904144344 0 7 -14
279 1 5 0.1268 -12.403704414032056 -16.444472984086694 -14.86669449466742 0 7 -14
3340 1 9 -0.4506 -8.713372849396228 -11.768387295949939 -12.115168463140407 -1 7 -13
1443 1 5 0.1268 -9.093238861488036 -12.217678628357707 -14.976728984262545 -2 5 -14
2522 106 7 0.41 -14.143538587072959 -15.348836662848502 -16.22089614367796 1 7 -15
4057 130 7 0.41 -12.852563957562198 -11.853558317866963 -17.07980931285744 1 6 -16
639 1 5 0.053 -14.688492383620527 -8.67888487016084 -9.322402464452434 -1 7 -13
2163 1 5 0.1268 -16.673689049777657 -14.360890966904327 -13.501629568757412 1 8 -14
4036 130 8 -0.82 -12.646723727571175 -12.094776981398823 -16.193408850595496 1 6 -16
1427 1 3 0.0265 -8.641572529946247 -12.893402749227727 -16.98608237934265 -2 5 -14
3369 1 5 0.053 -16.981229988611474 -11.569793231224654 -11.269689166619951 -1 7 -13
2136 1 3 0 -17.15943579606631 -16.059182201596876 -12.080046636750001 1 8 -14
268 1 3 0.0265 -14.180408590220292 -16.816866119150482 -13.09847031390185 0 7 -14
3763 106 7 0.41 -13.873325316352268 -13.8868454559349 -16.527500808996475 0 7 -15
3742 106 8 -0.82 -14.459258385333367 -14.607420710448327 -16.801779362633102 0 7 -15
943 1 5 0.053 -15.667814376799598 -15.647435654334737 -8.824363878616587 0 7 -13
267 1 3 0 -13.841891946601603 -16.78152683531122 -11.73511055396917 0 7 -14
4085 113 8 -0.82 -17.01610345898514 -11.682869888690956 -16.940877565389837 -1 8 -16
3895 130 7 0.41 -11.983948890219109 -11.348060058765359 -16.002963611903432 -1 6 -15
3450 97 8 -0.82 -4.45130349071413 -12.321858992409023 -17.08226256783422 -1 7 -13
3368 1 6 0.4241 -3.855849538212455 -10.790531024350692 -16.6251848272945 -1 7 -13
3148 1 3 -0.1268 -0.11528189052708271 -13.255477739141897 -9.03856253819121 -1 6 -14
2306 1 5 0.053 -0.3768193454587596 -14.223421868597034 -15.935078043789174 -1 4 -15
3149 1 3 -0.1268 -0.6191797791256626 -14.429687054835195 -9.651166599528874 -1 6 -14
244 1 6 0.4241 -3.3307291674436463 -8.807428082117324 -8.870721248754137 0 7 -14
3372 1 5 0.053 -7.300995064499274 -10.435596294367073 -16.582270861447295 -1 7 -13
220 1 1 -0.106 -5.453405565702344 -11.369719509364915 -9.082482629442023 0 7 -14
275 1 1 -0.106 -8.214112660181561 -15.449756804680787 -9.616529845591394 0 7 -14
237 1 5 0.053 -5.613738505453682 -10.49627564427485 -9.77572916879376 0 7 -14
296 1 5 0.053 -7.269903163846786 -15.933180885198782 -10.032039205046592 0 7 -14
282 1 5 0.1268 -7.920542263011189 -15.882227660304949 -12.152498556583504 0 7 -14
3155 1 1 -0.106 -3.394377121749585 -12.865188227875564 -11.762947755949352 -1 6 -14
2314 1 5 0.053 -5.6063380538593535 -16.511527646277038 -15.889430580823959 -1 4 -15
2313 1 5 0.053 -6.33950931095324 -16.23159512331045 -14.283174483045997 -1 4 -15
3364 1 5 0.1268 -4.797952540444927 -9.636521657380706 -11.648501371304189 -1 7 -13
2298 1 5 0.1268 -5.497404566125713 -13.880241304389283 -13.118615676046723 -1 4 -15
3345 1 3 -0.1268 -4.230898827725698 -9.809180255749833 -13.719189119265392 -1 7 -13
2275 1 3 0 -2.176182989235878 -14.8450712948388 -14.931529280634903 -1 4 -15
2271 1 3 0 -4.56205512574984 -15.100186394541565 -14.723491981360805 -1 4 -15
3363 1 5 0.1268 -7.93255959076712 -9.334966573491599 -14.508674502526672 -1 7 -13
2276 1 3 0.0265 -3.381608349631801 -15.39537997912048 -15.390606035629872 -1 4 -15
3348 1 9 -0.4506 -3.601952442254703 -10.074888009242693 -15.962414367446469 -1 7 -13
3351 1 1 -0.106 -6.44396108956302 -9.699624026355941 -16.755305837434705 -1 7 -13
1424 1 3 0 -6.769532823254913 -14.7087704863583 -15.796618016379634 -2 5 -14
3341 1 3 0 -5.939264825449047 -9.696772711427396 -15.339885708844083 -1 7 -13
1422 1 3 -0.1268 -8.491395259753238 -12.893271440439001 -15.61629271010949 -2 5 -14
1423 1 3 -0.1268 -7.586103724804927 -13.815614582325844 -15.097418877180584 -2 5 -14
3346 1 3 0.0265 -4.571713131156761 -9.920303873836943 -15.045033560910948 -1 7 -13
3342 1 3 -0.1268 -6.835535529631548 -9.46973743999178 -14.31370806508583 -1 7 -13
1444 1 5 0.1268 -7.446905325716276 -13.752577436682229 -14.03130786124493 -2 5 -14
2294 1 1 -0.106 -5.849145835059968 -15.709108601129952 -15.132812018977338 -1 4 -15
2272 1 3 -0.1268 -4.5697606113062434 -14.332767705864999 -13.574741520067438 -1 4 -15
2274 1 3 -0.1268 -2.262356855290376 -14.118894745040702 -13.764932356573086 -1 4 -15
2291 1 9 -0.4506 -3.474987587134267 -16.273581713184566 -16.484068901421185 -1 4 -15
3343 1 3 0 -6.502398629217517 -9.453351118614329 -12.998674080445705 -1 7 -13
3365 1 5 0.1268 -3.115853959280173 -9.826646403871926 -13.391352829591199 -1 7 -13
3344 1 3 -0.1268 -5.149153713384967 -9.647252839835298 -12.695425907406792 -1 7 -13
2273 1 3 0 -3.37788668216845 -13.7733037916745 -13.0440849797819 -1 4 -15
3347 1 1 -0.106 -7.4148070856100095 -9.260969619085067 -11.818049952827135 -1 7 -13
3367 1 5 0.053 -7.320575062955781 -10.035677590134966 -11.049024840081032 -1 7 -13
2296 1 5 0.1268 -1.3554114735533886 -13.645686880841058 -13.342960600149025 -1 4 -15
3176 1 5 0.053 -3.2181361937493485 -11.809533848704394 -12.142786018204838 -1 6 -14
3172 1 6 0.4241 -2.6272923736295883 -15.390548152941825 -11.685553813217785 -1 6 -14
3756 1 5 0.1268 -1.4464284242977854 -9.992700856324888 -15.148149898820513 -1 6 -14
3177 1 5 0.053 -4.439053298956546 -12.861456334704666 -11.341256706979125 -1 6 -14
3152 1 9 -0.4506 -2.107685370386692 -15.596071503866776 -10.94567439621667 -1 6 -14
3145 1 3 0 -2.2685355756146386 -13.181812044050755 -10.839756490633071 -1 6 -14
3150 1 3 0.0265 -1.7248289334344697 -14.39724009708944 -10.528531648556212 -1 6 -14
235 1 5 0.1268 -6.226935210664834 -13.722991940859409 -10.159116365346389 0 7 -14
3167 1 5 0.1268 -2.2330846678060734 -11.054613642897003 -10.329516514359609 -1 6 -14
3146 1 3 -0.1268 -1.7496989664990554 -12.068482307137003 -10.173697360493438 -1 6 -14
2289 1 1 -0.106 -0.8262363365989138 -15.130195033924009 -15.480268328625757 -1 4 -15
238 1 5 0.053 -4.7195674016854685 -12.081586341876918 -9.501482543473799 0 7 -14
2307 1 5 0.053 -0.7757212420071617 -15.755440941955655 -16.440295005051375 -1 4 -15
214 1 3 -0.1268 -6.938361214836686 -13.33827480096393 -9.423149416115612 0 7 -14
215 1 3 0 -8.007757982201976 -14.104457070341294 -8.98387778307122 0 7 -14
3147 1 3 0 -0.7168892452503286 -12.057303908231784 -9.211495832837297 -1 6 -14
213 1 3 0 -6.779865850260325 -12.075717362415102 -8.79922831571155 0 7 -14
2310 1 6 0.4241 -2.576987380338922 -16.604186191655103 -16.669539493425116 -1 4 -15
3736 1 3 -0.1268 -0.33263714655266696 -10.227771311659403 -15.209209196422268 -1 6 -14
3757 1 5 0.1268 -0.5785705331140889 -12.434121744585553 -15.45515007437477 -1 6 -14
295 1 5 0.053 -8.509765124304666 -16.10699824369364 -8.805576091299985 0 7 -14
293 1 5 0.053 -8.559575858258981 -16.42231013720963 -14.445075548601848 0 7 -14
3472 97 7 0.41 -4.46535267789673 -13.27432808856257 -16.914735890022065 -1 7 -13
2279 1 3 0 -0.005342287033027304 -15.858300101089567 -14.48256792636484 -1 4 -15
3169 1 5 0.1268 -0.06695571475931672 -15.333576505663 -9.425869365873115 -1 6 -14
3170 1 5 0.053 -0.8983966769691882 -10.041354948196844 -8.67506597403105 -1 6 -14
2280 1 3 -0.1268 -0.4707279094434078 -17.15367306179848 -14.157180556048225 -1 4 -15
147 8 7 0.41 -2.16526566038074 -15.827520725098768 -8.672303565129859 -1 7 -13
2119 97 7 0.41 -5.415636296790389 -12.08399866055273 -17.052081582107707 -1 6 -13
1425 1 3 -0.1268 -6.858908195387503 -14.596884668357877 -17.174486952775307 -2 5 -14
640 1 5 0.053 -15.549071325815293 -7.252810686879545 -8.912240988040251 -1 7 -13
3337 1 3 -0.1268 -9.646947224788395 -8.240008361908687 -12.388798811140006 -1 7 -13
3332 1 3 0 -10.94770432237803 -8.325230376467436 -12.748247415750056 -1 7 -13
1030 1 5 0.1268 -15.455611661097768 -0.10375703585493667 -12.216984474365269 0 6 -14
2324 1 3 0 -17.058403303195625 -0.985714993701599 -15.630297427457972 1 3 -14
2339 1 1 -0.106 -13.104581351124123 -5.352437863310328 -17.095711081720502 1 3 -14
1412 1 6 0.4241 -14.933739626601124 -3.600882203474283 -8.989026751493041 -1 7 -13
641 1 6 0.4241 -14.924727921292838 -8.252932818476221 -11.208053760195671 -1 7 -13
2451 1 3 0 -9.205281997703276 -0.22976717131117752 -17.15914120247813 0 6 -14
3077 1 6 0.4241 -13.875066677673512 -1.4645079617338403 -10.902578347464939 -2 6 -13
3051 1 3 -0.1268 -10.33567682238827 -0.7911199540942455 -9.617812510911936 -2 6 -13
1203 1 3 0 -15.46615167120569 -8.226555906225764 -16.232229758090938 0 7 -14
1383 1 3 0 -17.07115268695596 -4.804029130785059 -9.88422054733502 -1 7 -13
2351 1 5 0.053 -14.976615441559849 -0.5778743075006005 -15.163571015784342 1 3 -14
1403 1 5 0.1268 -17.05181530551637 -4.35967452724511 -13.783492191023445 -1 7 -13
622 1 9 -0.4506 -14.252439952395447 -7.875485905274205 -11.81597256845304 -1 7 -13
608 1 3 -0.1268 -12.925019540068792 -5.858360813670615 -9.005754019967402 -1 7 -13
3052 1 3 -0.1268 -11.679035743446272 -0.9667606424815176 -9.958079488748698 -2 6 -13
1384 1 3 0.0265 -16.103274605075832 -3.9672905246082486 -10.52010452687649 -1 7 -13
612 1 3 -0.1268 -11.493329921615342 -5.706696028573855 -10.89795248555787 -1 7 -13
610 1 3 0.0265 -13.410251483269587 -7.11793136796911 -11.046964800517589 -1 7 -13
645 1 5 0.053 -12.68358471796331 -7.276048151962067 -13.559487329067899 -1 7 -13
1225 1 5 0.1268 -13.887368090744896 -7.1725046524610505 -15.256249426376764 0 7 -14
1208 1 3 -0.1268 -14.482373082318828 -7.255438285192302 -16.195155288922873 0 7 -14
300 16 7 0.41 -11.704813914217139 -3.7511518488593243 -12.951927186537343 0 6 -15
625 1 1 -0.106 -11.790962633951949 -7.063302782482268 -12.93519618381907 -1 7 -13
1385 1 3 -0.1268 -16.176668615558782 -3.7610250948815285 -11.919210848977652 -1 7 -13
1217 1 5 0.1268 -16.6093477496349 -6.936750961990876 -13.851931551891413 0 7 -14
2352 1 5 0.053 -15.66832072223782 -2.0081699475835197 -14.453196597601004 1 3 -14
2336 1 9 -0.4506 -14.366628742098168 -3.8658970441706604 -14.883765335645792 1 3 -14
2320 1 3 0 -14.9125761265641 -2.1269841575612265 -16.53109815778331 1 3 -14
2321 1 3 0.0265 -14.366383790249774 -3.3614563005595546 -16.203301368281004 1 3 -14
2358 1 5 0.053 -12.639354572548676 -5.42616383919246 -16.0959746365469 1 3 -14
2494 1 5 0.053 -10.85837985351043 -0.8228590273017637 -15.960013202349286 0 6 -14
2334 1 1 -0.106 -15.65640014673508 -1.3763816106178854 -15.356939804223856 1 3 -14
2355 1 6 0.4241 -13.397077173642602 -3.7213083756572054 -14.55570988799897 1 3 -14
646 1 5 0.053 -11.11184823999643 -6.398733467597278 -13.458244299465637 -1 7 -13
278 16 8 -0.82 -11.808438368313613 -3.2120840537972715 -13.747790962108889 0 6 -15
2474 1 1 -0.106 -10.28650355044169 -1.1526991773116961 -16.834721113897917 0 6 -14
1402 1 5 0.1268 -15.480312254878593 -3.175912652592924 -12.420164144489949 -1 7 -13
2727 1 3 0 -9.750859473402286 -2.427545949637823 -16.456532044407258 0 6 -14
611 1 3 0 -12.235499498950379 -6.5928993586428 -11.611015420105673 -1 7 -13
3405 16 7 0.41 -11.185879321193516 -2.433764402724428 -13.688676402239171 0 6 -15
632 1 5 0.1268 -10.567527096596503 -5.349543642147969 -11.244978398391122 -1 7 -13
2729 1 3 0 -9.58659459017776 -4.806654267362038 -17.03370272758577 0 6 -14
1048 1 5 0.053 -16.732954400534677 -1.5906595136139376 -10.828400018498787 0 6 -14
607 1 3 0 -11.80525088809366 -5.319203900551162 -9.595086617105386 -1 7 -13
1393 1 9 -0.4506 -15.09190614901634 -3.316005665393842 -9.881659560217244 -1 7 -13
3357 1 5 0.1268 -9.114083066576228 -7.317957846107461 -12.132200103088222 -1 7 -13
609 1 3 -0.1268 -13.638045333784813 -6.843664812963549 -9.683557471550284 -1 7 -13
2730 1 3 -0.1268 -8.989280809835456 -5.0216180158772215 -15.811189785431244 0 6 -14
642 1 5 0.053 -10.151220994330384 -3.8674321418770905 -9.47136779126015 -1 7 -13
623 1 1 -0.106 -10.856481500605021 -4.424424619922888 -8.799192681973373 -1 7 -13
1386 1 3 -0.1268 -17.150642099611176 -4.427622145990796 -12.673064612339576 -1 7 -13
2732 1 3 0.0265 -9.060751929983457 -2.6319391523757254 -15.237882925546128 0 6 -14
2731 1 3 0 -8.64539604990149 -3.9315656288218612 -14.988531439118393 0 6 -14
3053 1 3 0.0265 -12.10259373520792 -0.7670858255890174 -11.2770703487531 -2 6 -13
2751 1 5 0.1268 -8.755825033099422 -6.005576245448982 -15.495692341902702 0 6 -14
3058 1 9 -0.4506 -13.307774210096788 -1.183764663223073 -11.635182715537413 -2 6 -13
621 1 1 -0.106 -14.567020833168277 -7.722237350001274 -8.854806807314624 -1 7 -13
636 1 6 0.4241 -11.719258414806124 -7.986034861379563 -8.693750445805147 -1 7 -13
2761 1 6 0.4241 -9.11717081898565 -0.8874492591325307 -14.637435264352558 0 6 -14
2742 1 9 -0.4506 -8.811852244832531 -1.6802962118609432 -14.247916145752306 0 6 -14
3070 1 5 0.1268 -12.251325483861889 -1.5420884819915202 -9.237691795005839 -2 6 -13
2746 1 5 0.1268 -8.844682779884016 -8.505020202761004 -16.756031612902863 0 6 -14
3050 1 3 0 -9.507261737620972 -0.09132878257589638 -10.468344781477953 -2 6 -13
3069 1 5 0.1268 -9.8623626454243 -1.1026088325302652 -8.654209336767838 -2 6 -13
1207 1 3 0 -14.20396732681559 -6.350786490758429 -17.195367290106585 0 7 -14
2426 1 9 -0.4506 -0.18639983351935285 -5.796157357208555 -10.20801030420094 -1 6 -13
3739 1 1 -0.106 -0.08314633141644734 -7.813285507153756 -14.875711731772647 -1 6 -14
3366 1 5 0.053 -7.1282258082156424 -8.257937105152662 -11.355475339802224 -1 7 -13
108 1 3 -0.1268 -0.8476829976699634 -0.12165306070357929 -13.217367976841249 -1 6 -13
112 1 3 -0.1268 -2.5674960813085352 -0.16834616105240485 -14.783222433933446 -1 6 -13
1725 1 5 0.053 -2.384010167737955 -2.22840665588768 -8.861286062173441 0 6 -14
1698 1 3 0 -4.019257053486843 -3.7024681390093566 -8.79670160552776 0 6 -14
145 1 5 0.053 -5.25270155476497 -0.08361814352603858 -15.063685606417542 -1 6 -13
3732 1 9 -0.4506 -1.9044675393659602 -7.437374356639246 -17.133609094739143 -1 6 -14
2477 104 7 0.41 -0.9465951476663648 -2.909727894179337 -13.615806350908706 0 6 -15
123 1 1 -0.106 -0.19394955494594157 -0.17832715760010487 -15.728315194118002 -1 6 -13
847 44 7 0.41 -5.999669920051025 -3.218966575822261 -16.79474587546725 0 6 -13
132 1 5 0.1268 -2.9526559634501233 -0.029819835882239687 -15.76376264153541 -1 6 -13
2752 1 5 0.1268 -3.62407756503959 -3.2390496754054627 -14.723247174323456 0 6 -14
3759 1 5 0.053 -1.1252497303316957 -7.810183460266989 -14.733622108784804 -1 6 -14
107 1 3 -0.1268 -1.189732948017479 -0.26453462847432974 -14.542562954512935 -1 6 -13
121 1 1 -0.106 -1.030862787752664 -0.30116173578253935 -10.700750142995776 -1 6 -13
109 1 3 0 -1.6627317382219235 -0.27027576217220783 -12.120297928432063 -1 6 -13
1220 62 7 0.41 -1.2958639904390985 -7.8881310514569325 -9.87513180569522 2 7 -14
3546 62 8 -0.82 -1.958617236232909 -8.568179399114353 -10.221543194759509 2 4 -13
110 1 3 0.0265 -3.0497066548444245 -0.34828411932956627 -12.424284931347056 -1 6 -13
2445 1 6 0.4241 -1.0769104543207888 -5.756444705950681 -9.93213715185965 -1 6 -13
2733 1 3 -0.1268 -4.395335638791641 -3.993651489646453 -14.559566460583838 0 6 -14
142 1 5 0.053 -0.7352536340675542 -0.2937085429639019 -16.70663153364292 -1 6 -13
2759 1 5 0.053 -8.530439983158905 -5.249518011772773 -13.430311247065305 0 6 -14
3076 1 6 0.4241 -7.549299677168616 -1.7625412139199597 -12.236512922787151 -2 6 -13
122 1 9 -0.4506 -3.9074071067243548 -0.6699842225592398 -11.371578487017338 -1 6 -13
3073 1 5 0.053 -7.615574590458516 -0.6819515371688922 -9.75033166237267 -2 6 -13
1717 1 5 0.1268 -4.958512942712618 -5.4854209753056615 -11.560548617882112 0 6 -14
1708 1 9 -0.4506 -3.202718279117388 -3.742616060957264 -11.10801659394231 0 6 -14
141 1 6 0.4241 -4.809481156340373 -0.8138285551326625 -11.762691220513155 -1 6 -13
146 1 5 0.053 -5.224939580418951 -1.4338400179399304 -14.0279712962919 -1 6 -13
3303 92 8 -0.82 -2.8467634780893647 -7.154419414870057 -12.415346117678382 -3 8 -13
2520 104 8 -0.82 -0.5835702196801975 -3.6425927117464667 -14.114217166104197 0 6 -15
2735 1 3 0 -6.610301788694988 -4.674631306338265 -13.973901317079118 0 6 -14
2737 1 3 -0.1268 -4.935019719625634 -6.318380045100641 -14.524584524374047 0 6 -14
2740 1 1 -0.106 -8.041715040198774 -4.318687468086427 -13.679656441456146 0 6 -14
2754 1 5 0.1268 -7.045570042219637 -6.782586363373355 -13.932606737712202 0 6 -14
2762 1 6 0.4241 -2.2327778848548068 -4.810904519868284 -14.611284300738633 0 6 -14
2734 1 3 -0.1268 -5.716217253960462 -3.6525531423883884 -14.293804041438634 0 6 -14
125 1 1 -0.106 -4.9766874842362565 -0.37492170157476323 -14.065023198060352 -1 6 -13
1701 1 3 -0.1268 -5.656022191441737 -5.862113860134622 -9.587966287529678 0 6 -14
2753 1 5 0.1268 -6.120087020317271 -2.576457082997683 -14.309890663533459 0 6 -14
3325 92 7 0.41 -3.0690947509152746 -6.229176236787774 -12.197788770845701 -3 8 -13
1699 1 3 0.0265 -3.9270078897805742 -4.190096274213957 -10.08370064261187 0 6 -14
139 1 5 0.053 -1.3486295606998002 -1.1951854347474473 -10.243744077050142 -1 6 -13
3754 1 6 0.4241 -2.3297864651975377 -7.179195640351541 -16.29748350188132 -1 6 -14
111 1 3 0 -3.5161180735878457 -0.30212886344821754 -13.758442516233032 -1 6 -13
1718 1 5 0.1268 -6.377959984664809 -6.643859163990221 -9.962024272517422 0 6 -14
1700 1 3 -0.1268 -4.750348696865625 -5.236785942348785 -10.487904158679575 0 6 -14
2736 1 3 -0.1268 -6.229177475496959 -5.998062838676272 -14.128788046743384 0 6 -14
3057 1 9 -0.4506 -6.700499171130156 -1.4753854606597727 -11.865095582811696 -2 6 -13
2743 1 9 -0.4506 -2.6912147525049033 -5.618001675934709 -14.940600701486854 0 6 -14
3567 62 7 0.41 -2.255510686699795 -8.224208707882047 -11.112909684139066 2 4 -13
2758 1 5 0.053 -8.354836884423849 -3.6469525516713084 -12.8354635986804 0 6 -14
1727 1 6 0.4241 -3.218159018819037 -2.7611177932648996 -11.035850146369441 0 6 -14
2755 1 5 0.1268 -4.764581388015925 -7.368629323427875 -14.763492131706496 0 6 -14
1899 92 7 0.41 -3.09040126340207 -7.233681385873357 -13.363161008906403 -3 7 -12
2738 1 3 0.0265 -4.026178022911507 -5.351700892652216 -14.699986013748765 0 6 -14
3047 1 3 0.0265 -6.635781011988277 -0.09925482698246668 -12.080877470997292 -2 6 -13
1712 1 5 0.1268 -3.808372604104548 -0.2895409828643096 -9.267286703370052 0 6 -14
630 1 5 0.1268 -8.084561907146394 -4.89234812616864 -8.660119841584155 -1 7 -13
3727 1 3 0.0265 -0.6751478186440494 -6.755928390969839 -17.14180895866276 -1 6 -14
933 1 5 0.1268 -16.10494273500022 -9.933193793886739 -7.341878521030873 0 7 -13
929 1 5 0.1268 -15.43581191881175 -13.141398021771492 -7.526601543641512 0 7 -13
904 1 3 -0.1268 -14.609430329276094 -13.582132036993338 -6.961971078571818 0 7 -13
914 1 3 -0.1268 -16.620627894354495 -10.625127143961567 -6.6706259498217015 0 7 -13
903 1 3 0 -13.910947984664801 -12.733626004568197 -6.098001723432414 0 7 -13
938 1 5 0.053 -14.092767481898738 -10.670125216646959 -6.735943825806739 0 7 -13
920 1 1 -0.106 -14.439362423313636 -11.317235224635784 -5.889486022167516 0 7 -13
902 1 3 0.0265 -12.922338189864988 -13.309479491338411 -5.3545038427514715 0 7 -13
913 1 3 0 -15.89245859045647 -11.387670718707248 -5.779859776260098 0 7 -13
905 1 3 0 -14.242081098350516 -14.934769221497401 -7.119186638598178 0 7 -13
240 1 5 0.053 -10.132799205898449 -13.13619272684377 -5.9453467450946125 0 7 -14
937 1 5 0.053 -13.994922620144168 -10.895046794037562 -4.94726593213138 0 7 -13
918 1 3 0.0265 -16.54981352487951 -12.293671130519062 -4.94005975343484 0 7 -13
901 1 3 0 -12.484374767295263 -14.628522282945424 -5.5391637286831354 0 7 -13
924 1 9 -0.4506 -12.403298497957094 -12.506656268403741 -4.297575261209406 0 7 -13
944 1 6 0.4241 -13.14683873943043 -12.023932705654937 -3.948292540502308 0 7 -13
222 1 9 -0.4506 -10.35739889839759 -10.883416027318868 -3.64851682598629 0 7 -14
919 1 9 -0.4506 -15.898795913159555 -12.921751425277224 -3.854871480792406 0 7 -13
936 1 6 0.4241 -16.124426245096515 -13.849599260041527 -3.8163971813771393 0 7 -13
241 1 6 0.4241 -10.91523306475322 -11.556954677008317 -4.1080234919616725 0 7 -14
927 1 1 -0.106 -11.428536449104293 -15.10504444883695 -4.526068146001611 0 7 -13
239 1 5 0.053 -10.112233608339734 -11.341501591806214 -6.188646716743923 0 7 -14
221 1 1 -0.106 -9.519637796401145 -12.26337562825228 -6.077380937093359 0 7 -14
949 1 5 0.053 -11.284633977652419 -14.330407433377975 -3.7334167359994357 0 7 -13
923 1 1 -0.106 -15.172108266453291 -15.912558238965007 -7.838654340452749 0 7 -13
906 1 3 -0.1268 -13.171110322967976 -15.390418501199386 -6.42938443625216 0 7 -13
233 1 5 0.1268 -9.557778572221789 -14.375227661376776 -7.593459754753198 0 7 -14
2745 109 8 -0.82 -14.593496675030453 -10.928000288512118 -2.4160192035630956 0 6 -16
2765 109 7 0.41 -14.970753006742674 -10.052810580846904 -2.183608962307135 0 6 -16
210 1 3 0.0265 -9.028838093114928 -11.331386350562582 -3.8216210227233525 0 7 -14
1667 1 5 0.1268 -15.731759391619683 -14.861380135601241 -1.9218822140294431 0 8 -15
2657 109 7 0.41 -15.388528335934163 -11.325164298796151 -2.918142829202978 -1 6 -15
3473 1 3 0 -17.15172858017229 -9.242534112478147 -1.422158986904014 -1 6 -15
246 1 5 0.053 -9.35420103717502 -10.507112630714701 -1.1857555254432164 0 7 -14
216 1 3 -0.1268 -8.831983396022622 -13.681646448871843 -7.951038364711543 0 7 -14
209 1 3 0 -8.615103396593065 -12.122678169443981 -4.8719540802113155 0 7 -14
1675 1 5 0.1268 -13.803734078546185 -15.527141941311768 -3.5723539830833086 0 8 -15
217 1 3 0 -8.69729520763678 -12.494279211085654 -7.373337220523998 0 7 -14
2574 1 5 0.1268 -10.127036322451207 -11.938142973197106 -0.780409517505646 0 7 -15
2555 1 3 0 -10.957539420889841 -13.961244878530543 -0.6796925965279357 0 7 -15
2579 1 5 0.053 -12.833603867284523 -13.075808940207603 -1.3303890185101608 0 7 -15
2556 1 3 -0.1268 -9.946911979758042 -13.02574711409332 -0.9179727589706737 0 7 -15
2581 1 6 0.4241 -12.353935276449349 -11.096686516234943 -1.3386240807325382 0 7 -15
1658 1 3 -0.1268 -13.195287322490739 -16.451526781634136 -3.438966573103528 0 8 -15
930 1 5 0.1268 -12.9567316309294 -16.53504514792718 -6.490865219637145 0 7 -13