LAMMPS data file via write_data, version 2 Aug 2023, timestep = 5000000, units = real

4158 atoms
9 atom types
4356 bonds
8 bond types
7128 angles
12 angle types
10809 dihedrals
14 dihedral types
2904 impropers
7 improper types

-16.592647314805326 16.592647314805326 xlo xhi
-19.060261358085846 19.060261358085846 ylo yhi
-16.638412797722903 16.638412797722903 zlo zhi

Masses

1 12.01115
2 12.01115
3 12.01115
4 12.01115
5 1.00797
6 1.00797
7 1.00797
8 15.9994
9 15.9994

Pair Coeffs # lj/class2/coul/long

1 0.054 4.01
2 0.054 4.01
3 0.064 4.01
4 0.064 4.01
5 0.02 2.3
6 0.013 1.098
7 0.013 1.098
8 0.26 3.61
9 0.24 3.535

Bond Coeffs # class2

1 1.501 321.902 -521.821 572.163
2 1.101 345 -691.89 844.6
3 1.42 400.395 -835.195 1313.01
4 1.417 470.836 -627.618 1327.63
5 1.0982 372.825 -803.453 894.317
6 1.3768 428.88 -738.235 1114.97
7 0.965 532.506 -1282.9 2004.77
8 0.97 563.28 -1428.22 1902.12

Angle Coeffs # class2

1 120.05 44.7148 -22.7352 0
2 105.8 52.7061 -12.109 -9.8681
3 111 44.3234 -9.4454 0
4 111 44.3234 -9.4454 0
5 110.5 46 0 0
6 118.9 61.0226 -34.9931 0
7 117.94 35.1558 -12.4682 0
8 123.42 73.6781 -21.6787 0
9 108.19 53.125 -8.5016 0
10 107.66 39.641 -12.921 -2.4318
11 108.728 58.5446 -10.8088 -12.4006
12 103.7 49.84 -11.6 -8

BondBond Coeffs

1 12.0676 1.501 1.417
2 -9.6879 1.42 0.965
3 0 1.501 1.501
4 2.9168 1.501 1.101
5 0 1.501 1.42
6 68.2856 1.417 1.417
7 1.0795 1.417 1.0982
8 48.4754 1.417 1.3768
9 20.6577 1.3768 0.965
10 5.3316 1.101 1.101
11 23.1979 1.101 1.42
12 -9.5 0.97 0.97

BondAngle Coeffs

1 47.0579 31.0771 1.501 1.417
2 28.58 18.9277 1.42 0.965
3 0 0 1.501 1.501
4 26.4608 11.7717 1.501 1.101
5 0 0 1.501 1.42
6 28.8708 28.8708 1.417 1.417
7 20.0033 24.2183 1.417 1.0982
8 58.479 107.681 1.417 1.3768
9 53.8614 23.9224 1.3768 0.965
10 18.103 18.103 1.101 1.101
11 4.6189 55.327 1.101 1.42
12 22.35 22.35 0.97 0.97

Dihedral Coeffs # class2

1 0 0 4.4072 0 0 0
2 0 0 1.559 0 0 0
3 0 0 3 0 0 0
4 -0.2802 0 -0.0678 0 -0.0122 0
5 0 0 0 0 0.13 0
6 8.3667 0 1.1932 0 0 0
7 0 0 3.9661 0 0 0
8 0 0 4.8498 0 0 0
9 -0.69 0 0.5097 0 0.0095 0
10 -0.2801 0 -0.0678 0 -0.0122 0
11 0.1863 0 -0.4338 0 -0.2121 0
12 0 0 1.8769 0 0 0
13 0 0 1.7234 0 0 0
14 0 0 0 0 0 0

AngleAngleTorsion Coeffs

1 -14.4097 120.05 118.9
2 4.4444 120.05 117.94
3 0 120.05 123.42
4 0 111 120.05
5 0 110.5 105.8
6 0 118.9 118.9
7 -4.8141 118.9 117.94
8 -21.0247 118.9 123.42
9 -4.6072 123.42 108.19
10 -5.8888 111 120.05
11 -10.5093 108.728 105.8
12 0.3598 117.94 117.94
13 4.2296 117.94 123.42
14 0 110.5 120.05

EndBondTorsion Coeffs

1 0 0.2421 0 0 -0.6918 0 1.501 1.417
2 0 -1.797 0 0 -0.4879 0 1.501 1.0982
3 0 0 0 0 0 0 1.501 1.3768
4 0 0 0 0 0 0 1.501 1.417
5 0 0 0 0 0 0 1.501 0.965
6 -0.1185 6.3204 0 -0.1185 6.3204 0 1.417 1.417
7 0 -6.8958 0 0 -0.4669 0 1.417 1.0982
8 0 0.2655 0 0 4.8905 0 1.417 1.3768
9 0.9 -1.3456 1.19 3.4132 0.5873 -0.1323 1.417 0.965
10 1.3997 0.7756 0 -0.5835 1.122 0.3978 1.101 1.417
11 -1.7554 1.3145 0.2263 0.2493 0.6803 0 1.101 0.965
12 0 -0.689 0 0 -0.689 0 1.0982 1.0982
13 0 -1.5867 0 0 4.2641 0 1.0982 1.3768
14 0 0 0 0 0 0 1.42 1.417

MiddleBondTorsion Coeffs

1 0 9.1792 0 1.417
2 0 3.9421 0 1.417
3 0 0 0 1.417
4 0 0 0 1.501
5 0 0 0 1.42
6 27.5989 -2.312 0 1.417
7 0 -1.1521 0 1.417
8 0 4.8255 0 1.417
9 1.158 3.2697 3.5132 1.3768
10 -5.5679 1.4083 0.301 1.501
11 0 0.9241 -0.5889 1.42
12 0 4.8228 0 1.417
13 0 5.5432 0 1.417
14 0 0 0 1.501

BondBond13 Coeffs

1 2.5085 1.501 1.417
2 0.8743 1.501 1.0982
3 0 1.501 1.3768
4 0 1.501 1.417
5 0 1.501 0.965
6 53 1.417 1.417
7 -6.2741 1.417 1.0982
8 -2.2436 1.417 1.3768
9 1.159 1.417 0.965
10 -3.4826 1.101 1.417
11 0 1.101 0.965
12 -1.7077 1.0982 1.0982
13 2.0517 1.0982 1.3768
14 0 1.42 1.417

AngleTorsion Coeffs

1 0 -4.4683 0 0 3.8987 0 120.05 118.9
2 0 -0.1242 0 0 3.4601 0 120.05 117.94
3 0 0 0 0 0 0 120.05 123.42
4 0 0 0 0 0 0 111 120.05
5 0 0 0 0 0 0 110.5 105.8
6 1.9767 1.0239 0 1.9767 1.0239 0 118.9 118.9
7 0 2.5014 0 0 2.7147 0 118.9 117.94
8 0 10.0155 0 0 1.7404 0 118.9 123.42
9 -5.136 -1.0122 0 4.6852 0.023 -0.598 123.42 108.19
10 4.6266 0.1632 0.0461 0.2251 0.6548 0.1237 111 120.05
11 -3.406 1.6396 0.0737 0 -0.281 -0.5944 108.728 105.8
12 0 2.4501 0 0 2.4501 0 117.94 117.94
13 0 1.8729 0 0 2.5706 0 117.94 123.42
14 0 0 0 0 0 0 110.5 120.05

Improper Coeffs # class2

1 7.8153 0
2 4.8912 0
3 13.0421 0
4 0 0
5 0 0
6 0 0
7 0 0

AngleAngle Coeffs

1 0 0 0 120.05 118.9 120.05
2 0 0 0 118.9 117.94 117.94
3 0 0 0 118.9 123.42 123.42
4 0 0 0 111 111 111
5 2.3794 3.0118 2.3794 111 111 107.66
6 0 0 0 111 108.728 110.5
7 2.4259 2.4259 2.1283 107.66 108.728 108.728

Atoms # full

462 1 3 -0.1268 -10.230654988720818 -16.717117193768164 -15.247209020555596 -13 -7 4
454 1 3 -0.1268 -10.372858360287509 -12.741167164682523 -14.58613043655391 -13 -7 4
457 1 3 0 -9.687021504522377 -15.45570548365011 -15.567668491677424 -13 -7 4
479 1 5 0.1268 -10.091161123918905 -12.651654666458626 -15.63528796569136 -13 -7 4
1583 1 5 0.1268 -13.464944014484976 -12.328814008014515 -10.551933423456372 -13 -8 3
451 1 3 0 -10.779177296664182 -12.722084215450451 -11.906180603418836 -13 -7 4
477 1 1 -0.106 -10.949534293766611 -12.83108951105455 -10.408153782755335 -13 -7 4
456 1 3 -0.1268 -9.90281070441214 -13.686594060075336 -12.482385760947938 -13 -7 4
455 1 3 0 -9.635864246438324 -13.681327257775683 -13.839097572063121 -13 -7 4
480 1 5 0.1268 -9.342881812924528 -14.334326606213676 -11.78310503617546 -13 -7 4
473 1 1 -0.106 -8.765584815877947 -14.64764809594558 -14.583402736033324 -13 -7 4
453 1 3 0 -11.32970660229741 -11.83133187980195 -14.116832300417881 -13 -7 4
452 1 3 0.0265 -11.445226114030412 -11.760374347223681 -12.712849213139666 -13 -7 4
470 1 1 -0.106 -12.132662815141256 -11.025799682303873 -15.004481125153841 -13 -7 4
1566 1 3 -0.1268 -13.349995795448372 -13.329922762900171 -10.13593233037486 -13 -8 3
474 1 9 -0.4506 -12.395551591717455 -10.930561728022134 -12.150008618277063 -13 -7 4
1567 1 3 0 -12.041497856414047 -13.786564618604991 -9.967292843437843 -13 -8 3
498 1 5 0.053 -11.095983597657508 -11.842156013367992 -9.977504190351976 -13 -7 4
1135 1 5 0.1268 -13.352684904757936 -17.26697652255679 -14.243085866151512 -12 -6 4
482 1 5 0.1268 -9.738424315306379 -17.284130485747454 -14.467852970511085 -13 -7 4
984 54 7 0.41 -13.165172669677919 -16.662122326289328 -12.071664571299134 -14 -8 5
1485 54 8 -0.82 -12.69499961126771 -17.475647113193563 -11.692144442276064 -14 -8 5
1505 54 7 0.41 -13.020929020828063 -17.409321664665036 -10.718949019637908 -14 -8 5
1565 1 3 -0.1268 -14.433139358413413 -14.181286410792259 -9.923956097374663 -13 -8 3
3938 112 8 -0.82 -13.156185750914833 -14.73500129093578 -12.923185811986276 -13 -8 5
2657 112 7 0.41 -12.617738915210868 -14.303088191858414 -13.666580367243178 -13 -8 5
3959 112 7 0.41 -13.112405308400465 -14.085410995646967 -12.257719388486716 -13 -8 5
499 1 5 0.053 -9.930617305133378 -13.184393267149815 -10.0512521535728 -13 -7 4
1118 1 3 -0.1268 -13.928046313316614 -18.175039932872078 -14.564031257124206 -12 -6 4
1568 1 3 -0.1268 -11.767474220540542 -15.050466639258003 -9.441059081202122 -13 -8 3
1141 1 5 0.053 -15.21203073861926 -16.68274906011539 -12.897474578267971 -12 -6 4
487 1 5 0.053 -13.261339438048141 -11.205435929562645 -14.82208337970201 -13 -7 4
1564 1 3 0.0265 -14.155554806606267 -15.446771135625156 -9.318925428408399 -13 -8 3
1582 1 5 0.1268 -15.449136257365787 -13.852308606698122 -10.206771286986523 -13 -8 3
1113 1 3 0 -15.278179722756718 -18.323027231833457 -14.243677420692302 -12 -6 4
3163 1 5 0.053 -14.804111573048878 -10.451135677573818 -12.837098895785104 -13 -7 4
1563 1 3 0 -12.848028284613338 -15.863106457048728 -9.022308107843415 -13 -8 3
1585 1 5 0.1268 -10.76331653444948 -15.443612032510938 -9.2952962412078 -13 -8 3
494 1 6 0.4241 -12.596693607728588 -10.253388090590185 -12.851344983075155 -13 -7 4
463 1 3 0 -11.757453642313319 -11.341018396909941 -16.43594295127801 -13 -7 4
1122 1 1 -0.106 -15.949892286700585 -17.316338581298204 -13.313728225966294 -12 -6 4
3142 1 1 -0.106 -15.550895085695176 -9.855013422212371 -13.368249282594363 -13 -7 4
1592 1 6 0.4241 -15.994535521207307 -15.758129790567558 -9.289727020375583 -13 -8 3
1547 1 6 0.4241 -11.163356032585211 -18.287276695492817 -11.4756606017995 -14 -6 4
3164 1 5 0.053 -15.248411000819802 -10.139597163458394 -14.459166709563549 -13 -7 4
488 1 5 0.053 -11.842889344838728 -9.92131842442302 -14.79560886144791 -13 -7 4
486 1 6 0.4241 -13.37850458488491 -14.133086184226554 -16.573081489720316 -13 -7 4
461 1 3 0 -11.235289500208694 -17.28761882941142 -16.028464052759322 -13 -7 4
475 1 1 -0.106 -11.72965262930983 -18.68163032073576 -15.803166571687964 -13 -7 4
1591 1 5 0.053 -13.23796408627039 -17.940543241913755 -8.797802032258852 -13 -8 3
3144 1 9 -0.4506 -16.23061538538375 -12.545859118530885 -12.362074918118108 -13 -7 4
1573 1 9 -0.4506 -15.278699923199207 -16.21666237767938 -8.854717862410705 -13 -8 3
2795 1 5 0.1268 -14.265466449076374 -10.542029688523783 -8.60189512411329 -13 -9 5
469 1 9 -0.4506 -13.104484167267652 -13.319563219061884 -16.120096605401812 -13 -7 4
1117 1 3 0 -13.242795406134682 -18.925007115638355 -15.50538468512419 -12 -6 4
1572 1 1 -0.106 -12.614107850592745 -17.197849591384735 -8.35714582616036 -13 -8 3
1528 1 9 -0.4506 -10.320674436900344 -18.751138156868635 -11.638868445894433 -14 -6 4
1590 1 5 0.053 -11.56550049965443 -17.50230519987048 -8.451125318653553 -13 -8 3
1992 1 5 0.053 -15.49062452062855 -11.931216727970225 -16.284951511489027 -15 -7 3
1991 1 5 0.053 -16.01827876880257 -13.534217697561058 -16.548078111631995 -15 -7 3
1520 1 3 -0.1268 -8.669744018697784 -18.827932592736612 -9.9546877750746 -14 -6 4
492 1 5 0.053 -8.289403048253314 -15.39642686707681 -13.995080615247923 -13 -7 4
2554 1 3 -0.1268 -4.213625926700253 -11.667272884270748 -8.368888631203566 -13 -9 5
3952 1 5 0.1268 -0.7550859168790733 -11.592077467867055 -13.08672117572879 -13 -9 5
3935 1 1 -0.106 -0.2129755338304875 -12.333234150603264 -15.909916276515522 -13 -9 5
1537 1 5 0.1268 -8.015196445659582 -18.214817601378307 -10.567187150918613 -14 -6 4
950 51 7 0.41 -1.0610645343371967 -16.824799350209258 -14.60699348545689 -13 -6 6
3420 124 7 0.41 -4.429240264724436 -16.82502900165501 -12.695595546488 -14 -7 4
493 1 5 0.053 -8.002369149356257 -14.068304290597304 -15.120011960688238 -13 -7 4
1637 1 6 0.4241 -7.6804720330591625 -10.826673806608976 -13.579842179249686 -14 -8 3
1627 1 5 0.1268 -7.100031830448158 -10.489543456653278 -10.073126279539403 -14 -8 3
1609 1 3 0.0265 -7.5402625350020305 -9.766075525212896 -12.105920389897294 -14 -8 3
3944 124 7 0.41 -5.103328594550893 -18.19044775261244 -13.145571204049833 -13 -9 5
3399 124 8 -0.82 -4.54205841570686 -17.733882779873145 -12.47184928238282 -14 -7 4
1618 1 9 -0.4506 -7.352770457088873 -11.012897089901564 -12.673672049847312 -14 -8 3
928 51 8 -0.82 -1.0764227704344531 -16.88991579850304 -13.640962966056152 -13 -6 6
3961 1 5 0.053 -5.219325304276698 -15.058001700501297 -14.309724120878583 -13 -9 5
674 1 9 -0.4506 -1.3618157989665907 -18.43020908737009 -11.297203337217528 -13 -6 4
3953 1 5 0.1268 -2.2472468263201417 -13.001313971830161 -11.599673750084452 -13 -9 5
651 1 3 0 -2.194843079078632 -16.70155446713402 -9.79172317628133 -13 -6 4
3933 1 3 0 -2.3049047610349085 -13.032480919472908 -12.730474083333771 -13 -9 5
3934 1 3 0.0265 -3.2437657391250223 -13.917645572983119 -13.230927854117157 -13 -9 5
677 1 1 -0.106 -3.4359166302299453 -17.562132629112163 -9.519168183800481 -13 -6 4
2563 1 9 -0.4506 -5.997265101425011 -12.943244327111568 -11.310551631667895 -13 -9 5
3956 1 6 0.4241 -4.547537828640962 -14.092300357780466 -11.837525862954461 -13 -9 5
3936 1 9 -0.4506 -4.030346342567761 -14.705557595046542 -12.376083546469342 -13 -9 5
652 1 3 0.0265 -1.1782521110853637 -17.153738558598864 -10.602613882169116 -13 -6 4
2558 1 3 0.0265 -5.54536354264661 -12.829109460293836 -10.035965303312553 -13 -9 5
655 1 3 0 -0.8963715383474664 -14.802306958070313 -9.110817725123148 -13 -6 4
3929 1 3 0 -3.319469570477745 -14.126780304185788 -14.635836974924953 -13 -9 5
699 1 5 0.053 -4.211041582554117 -16.868918215645838 -9.151883953665044 -13 -6 4
656 1 3 -0.1268 -2.0662742586012985 -15.52621193689111 -9.082965074812309 -13 -6 4
3932 1 3 -0.1268 -1.445126152864173 -12.304712328603639 -13.59098702282485 -13 -9 5
2553 1 3 -0.1268 -4.440655608233252 -12.015077835813905 -9.768942450248119 -13 -9 5
2572 1 5 0.1268 -3.689443410323264 -11.600785119334066 -10.452785542814254 -13 -9 5
3930 1 3 -0.1268 -2.3476000063271787 -13.531384973197998 -15.453637169289417 -13 -9 5
698 1 5 0.053 -3.812455512366858 -18.12887531533984 -10.347816265462882 -13 -6 4
3931 1 3 0 -1.376678083332827 -12.645389887482237 -14.918658796392204 -13 -9 5
694 1 6 0.4241 -1.251252926054276 -18.26804362323835 -12.24615355437044 -13 -6 4
3939 1 1 -0.106 -4.465628770019386 -15.003409791907625 -15.07703963832029 -13 -9 5
2582 1 6 0.4241 -6.583083593366462 -12.160047702382954 -11.48727591251328 -13 -9 5
2575 1 5 0.1268 -6.949894337206636 -14.22253505579988 -9.237726124297991 -13 -9 5
2557 1 3 -0.1268 -6.202375270886904 -13.445256852009088 -9.03112220664593 -13 -9 5
3107 111 8 -0.82 -5.732731325163149 -18.48102826439097 -14.805055042521102 -12 -6 4
1597 1 3 0.0265 -4.553750080458148 -9.817177087024929 -16.50003368861873 -14 -8 3
1599 1 3 -0.1268 -6.893983791891527 -10.024679521209205 -16.054849498036674 -14 -8 3
1626 1 5 0.1268 -4.913760881274699 -12.329882730647947 -15.967307061774736 -14 -8 3
1610 1 3 -0.1268 -7.418595155132454 -9.612961781976878 -10.69688135802437 -14 -8 3
3960 1 5 0.053 -4.139621269096386 -16.079062347169643 -15.260682862456626 -13 -9 5
1494 51 7 0.41 -0.7058776868691812 -16.03657599880374 -13.459962586890452 -13 -7 7
1604 1 3 0 -5.125024711114905 -14.53210933548661 -16.318327595978108 -14 -8 3
3019 49 7 0.41 -2.936522983262357 -18.845195651306515 -14.811513440236581 -10 -7 6
3951 1 5 0.1268 -2.2952147412453563 -13.88727147020017 -16.461200846951478 -13 -9 5
3129 111 7 0.41 -5.167092106585644 -18.201910062952464 -15.54523540216389 -12 -6 4
693 1 5 0.053 -0.6770875208638092 -12.69033914516406 -8.842955543548392 -13 -6 4
2656 1 5 0.1268 -1.5249590631708383 -9.74973966191467 -9.955376364874919 -13 -9 5
680 1 5 0.1268 -2.917196966719601 -15.130846406134747 -8.408086544564068 -13 -6 4
1621 1 5 0.1268 -7.860887673876361 -10.489334443901019 -16.295606948314187 -14 -8 3
1207 1 3 0 -3.0703068707471264 -18.467530563971746 -8.32962444495891 -15 -7 3
3165 1 6 0.4241 -15.73243602509516 -9.320478630002524 -10.949090115040072 -13 -7 4
1636 1 5 0.053 -8.914509840274786 -9.465134532741427 -14.549227619375394 -14 -8 3
4109 103 7 0.41 -13.822710406707252 -6.099262719049621 -9.202448145806407 -16 -7 4
3898 1 5 0.053 -16.552624511406556 -6.400461637502511 -15.668585994885188 -13 -7 4
1730 56 7 0.41 -10.427559403012792 -8.166162557340385 -12.887608079116388 -13 -6 3
1034 56 7 0.41 -11.523139078363283 -7.313347802218928 -12.401664735432137 -13 -7 4
815 1 3 0 -13.709965905737558 -0.2381876742419351 -12.135306257077247 -13 -9 5
804 1 3 -0.1268 -10.02703175125991 -0.37672483998618134 -9.948068207041953 -13 -9 5
813 1 3 0 -12.865001936203862 -0.44230459071975403 -9.941405167121335 -13 -9 5
3130 1 3 -0.1268 -15.247327147125011 -8.395346981340182 -13.101628914232943 -13 -7 4
3157 1 5 0.1268 -14.890640630928967 -8.118005016624183 -15.217244111625856 -13 -7 4
1710 56 8 -0.82 -11.400834977363427 -8.071239045744864 -12.99499806517228 -13 -6 3
3173 1 5 0.053 -15.276666241215647 -6.258011628137428 -9.569854345281364 -13 -7 4
3143 1 9 -0.4506 -15.18374338055144 -8.577920608436209 -10.700739579492206 -13 -7 4
3135 1 3 0.0265 -15.13688923696844 -7.811242198559546 -11.851379839934836 -13 -7 4
3131 1 3 -0.1268 -14.994221466415446 -7.603796946305138 -14.215599638191014 -13 -7 4
1693 1 3 -0.1268 -10.955035050450954 -4.852371192301895 -15.819894549587477 -13 -6 3
816 1 3 -0.1268 -13.556287295118107 -1.6150541363549316 -12.332021118965393 -13 -9 5
818 1 3 0.0265 -12.825630913657566 -1.8610796329473906 -10.043963063670876 -13 -9 5
835 1 5 0.1268 -14.003535730467014 -1.9899896220531872 -13.25103356166699 -13 -9 5
1714 1 5 0.1268 -10.78954665770351 -5.749229454258735 -15.179976643884496 -13 -6 3
821 1 1 -0.106 -12.417464162383641 -3.787343737919448 -11.734553865004905 -13 -9 5
3158 1 5 0.1268 -14.214708812945128 -5.740387211976712 -14.929154858853131 -13 -7 4
839 1 5 0.053 -12.869213746663139 -4.560819570948704 -11.126217582960269 -13 -9 5
3159 1 5 0.1268 -14.849447248824656 -4.587540938806397 -12.704568050195682 -13 -7 4
3134 1 3 0 -15.143533597022813 -6.409315552541527 -11.761936374516123 -13 -7 4
3153 1 1 -0.106 -15.60143760484242 -5.606298968048362 -10.492923975440913 -13 -7 4
3132 1 3 0 -14.67697679997271 -6.230454525733212 -14.136748011409336 -13 -7 4
3133 1 3 -0.1268 -14.910920875471161 -5.652013710367907 -12.902288244148748 -13 -7 4
3174 1 5 0.053 -15.190772530898485 -4.652932436883429 -10.362977990449949 -13 -7 4
840 1 5 0.053 -12.636420832474546 -4.182211990654459 -12.722126977259364 -13 -9 5
809 1 3 0 -10.916267069865299 -3.835812954160355 -11.586724242947053 -13 -9 5
822 1 9 -0.4506 -10.890541356798433 -6.287336118954277 -11.149573647182653 -13 -9 5
810 1 3 0.0265 -10.23881942206241 -4.968184371380904 -11.301823906090164 -13 -9 5
808 1 3 -0.1268 -10.221115078783944 -2.6728731549778324 -11.858137441654101 -13 -9 5
817 1 3 0 -12.969136340516402 -2.422169682750013 -11.357363572996057 -13 -9 5
831 1 5 0.1268 -10.823582868682784 -1.9112893452897168 -12.309293069987923 -13 -9 5
829 1 5 0.1268 -10.438636270821686 -1.3866026280394266 -10.019654594180718 -13 -9 5
841 1 6 0.4241 -11.407120329698756 -6.215528199918204 -10.313835105084802 -13 -9 5
819 1 9 -0.4506 -12.449259347950612 -2.6782162145764303 -8.962199782371563 -13 -9 5
242 1 5 0.053 -9.148240170866853 -0.02155107078383267 -14.098905644758943 -14 -7 4
805 1 3 0 -8.89318412161742 -0.13607002101596422 -10.64176967080656 -13 -9 5
807 1 3 0 -8.88712862532362 -2.496147539813485 -11.524389341945401 -13 -9 5
2800 1 5 0.1268 -15.87361075379092 -2.8793195264533153 -8.630780105592972 -13 -9 5
811 1 3 0 -8.892544658544399 -4.861989369905338 -10.878228994605283 -13 -9 5
845 1 5 0.053 -8.610497019757823 -6.139127454491607 -9.101408088973772 -13 -9 5
1713 1 5 0.1268 -13.022996119348731 -5.204504294927279 -16.480448298885157 -13 -6 3
1692 1 3 -0.1268 -12.114655173151926 -4.558234374886565 -16.527212224121637 -13 -6 3
1694 1 3 0 -9.811984462280257 -4.053216356252836 -16.078213458031126 -13 -6 3
1635 1 5 0.053 -8.60461646261873 -7.790436230945547 -14.82894746482744 -14 -8 3
2353 1 5 0.053 -16.087001338337785 -1.3236175799782686 -14.273673191841667 -13 -7 4
1045 1 5 0.053 -8.619985215972138 -5.3279629198905525 -14.686647152066955 -13 -7 4
4087 103 8 -0.82 -12.974261568078909 -5.995888456689315 -8.719787299746248 -16 -7 4
1025 1 1 -0.106 -8.582161977369086 -4.334434851594009 -15.254332357393404 -13 -7 4
1715 55 7 0.41 -14.66398855530755 -0.22717361665283065 -8.602067927995595 -13 -6 3
843 1 5 0.053 -8.362548976877463 -0.7635733120334223 -12.600435088041614 -13 -9 5
232 1 5 0.1268 -11.555391927559572 -0.2800801057485849 -13.42537131119461 -14 -7 4
1046 1 5 0.053 -8.631423305024152 -3.5391822107560404 -14.518004125973098 -13 -7 4
2349 1 5 0.1268 -15.943241870085165 -0.35313361243438735 -16.559548751044655 -13 -7 4
243 1 5 0.053 -8.899582592090248 -0.21880118959355954 -15.78647300782858 -14 -7 4
2392 1 5 0.1268 -8.959260855224876 -3.394858401578686 -8.327272688623582 -14 -9 4
2297 103 7 0.41 -12.989299339813444 -5.080592280354834 -8.46534787263765 -15 -6 3
1630 1 5 0.1268 -8.168131170931458 -6.553212514762054 -12.877088844127298 -14 -8 3
1613 1 3 -0.1268 -8.053078549011067 -7.442956424305949 -12.183030262487812 -14 -8 3
3376 1 3 -0.1268 -0.15713546615594964 -5.150117190066835 -16.19067059660727 -14 -7 4
2671 1 6 0.4241 -4.280514651923559 -5.875777052090353 -15.695725150166036 -13 -9 5
2636 1 3 0.0265 -2.12195758377157 -6.67303442935418 -8.631130511463903 -13 -9 5
2633 1 3 0 -0.16062920968215977 -8.562647282316963 -8.815703049870955 -13 -9 5
2646 1 3 -0.1268 -4.491414593594936 -2.1545512790778787 -11.584717976071952 -13 -9 5
2647 1 3 -0.1268 -4.131914380786963 -0.8366616175249888 -11.500747644242402 -13 -9 5
3402 1 5 0.1268 -0.9500617543774883 -4.363205889337724 -16.10885939952701 -14 -7 4
2648 1 3 0.0265 -3.497181283016225 -0.26825965054343825 -12.56616529500766 -13 -9 5
1638 1 5 0.053 -2.8135325652390986 -7.40647290822961 -15.779955449186701 -14 -8 3
1011 1 3 0 -7.350563545956783 -4.321472507083261 -16.178823146610203 -13 -7 4
2661 1 5 0.1268 -4.678301348736676 -5.529423168437301 -10.590922064695835 -13 -9 5
2660 1 5 0.1268 -3.0574456375760377 -9.083613521490681 -12.388842031919967 -13 -9 5
1010 1 3 0.0265 -6.491451453949612 -3.203490648608639 -16.323259649659843 -13 -7 4
2662 1 5 0.1268 -2.5499127050328347 -0.5374081855582737 -14.46109694256601 -13 -9 5
2637 1 3 0 -3.3928214054094994 -7.42709885670676 -13.721308940514543 -13 -9 5
2663 1 5 0.1268 -3.535610760976324 -2.8622731136625923 -14.771650317058159 -13 -9 5
2642 1 3 0.0265 -3.837574827240056 -6.087616956275378 -13.832121105253897 -13 -9 5
1596 1 3 0 -4.473807905016871 -8.830285353881099 -15.478221401909586 -14 -8 3
3377 1 3 0 -0.23366715504974067 -6.208812421838335 -15.341085803699048 -14 -7 4
832 1 5 0.1268 -7.255757621378649 -3.532020556066813 -10.59113495031957 -13 -9 5
2666 1 5 0.053 -4.454763355882648 -7.649686238828393 -9.243724349676619 -13 -9 5
1628 1 5 0.1268 -7.56594521419723 -8.280254601745243 -8.918372562565999 -14 -8 3
825 1 1 -0.106 -8.174994651445111 -5.910142560643072 -10.115299386035307 -13 -9 5
812 1 3 -0.1268 -8.271173254747673 -3.647741041159138 -11.006111392608238 -13 -9 5
1612 1 3 0 -7.943399829469058 -7.209774620805277 -10.805553091267342 -14 -8 3
1611 1 3 -0.1268 -7.6810194894588 -8.369449076895235 -10.032139600692677 -14 -8 3
2640 1 3 -0.1268 -4.3202769124277065 -6.068156384845549 -11.438593145418023 -13 -9 5
168 1 3 0.0265 -0.6792354345472269 -1.8937669732058175 -9.913778383495409 -13 -9 5
846 1 5 0.053 -7.096951453916082 -5.549442058974144 -9.842892758840964 -13 -9 5
2639 1 3 0 -3.803109178056193 -7.319800080629376 -11.319871390260897 -13 -9 5
1601 1 3 -0.1268 -5.683994241615515 -8.412808693307483 -14.89223843591162 -14 -8 3
1600 1 3 -0.1268 -6.889921033959654 -9.045840926619674 -15.076609248529508 -14 -8 3
189 1 5 0.053 -3.239841646651339 -0.7604550287000009 -8.672219502783491 -13 -9 5
1022 1 9 -0.4506 -6.896140066807792 -2.010241506374367 -15.722760242224265 -13 -7 4
2635 1 3 0 -2.347484568647138 -7.806609830446959 -9.415575377491418 -13 -9 5
186 1 6 0.4241 -0.5954876564991078 -0.06113261230133915 -10.560815890545111 -13 -9 5
926 4 8 -0.82 -1.1614637189696335 -3.578992140661036 -12.980966470538977 -12 -6 6
169 1 9 -0.4506 -0.8655337855246099 -0.9579469941691876 -10.908354225736066 -13 -9 5
2669 1 5 0.053 -5.982551651466517 -4.006092719922744 -12.122137495306712 -13 -9 5
1639 1 5 0.053 -2.3100221415513857 -8.873355170127176 -14.773886697624455 -14 -8 3
2638 1 3 -0.1268 -3.472923554798154 -8.038066754692982 -12.48600179306785 -13 -9 5
2644 1 3 -0.1268 -3.7008007469302537 -2.275787825523821 -13.864125589035266 -13 -9 5
823 1 1 -0.106 -8.266480909014431 -1.1571074414289875 -11.573422044755027 -13 -9 5
2645 1 3 0 -4.276380470572009 -2.8862785698184865 -12.764913339052406 -13 -9 5
2634 1 3 -0.1268 -1.3698454161730709 -8.773621935268848 -9.446573745225558 -13 -9 5
2664 1 5 0.1268 -5.039066726601252 -2.574867012959711 -10.762288355714478 -13 -9 5
167 1 3 0 -1.3546073729579344 -1.7608698535751124 -8.692450024212395 -13 -9 5
1617 1 1 -0.106 -8.126987323886707 -8.678830413582327 -14.351465300722214 -14 -8 3
2665 1 5 0.1268 -4.396003386936027 -0.33614085510587444 -10.570771807985967 -13 -9 5
3403 1 5 0.1268 -0.7589436379571612 -6.05776921638763 -14.367143352893432 -14 -7 4
2650 1 1 -0.106 -5.192416179102709 -4.148184248021348 -12.91514566887336 -13 -9 5
842 1 5 0.053 -7.2378904494839595 -1.3554715277599207 -11.297481083567774 -13 -9 5
2652 1 9 -0.4506 -3.71532711492803 -5.418443991236719 -15.044971279305777 -13 -9 5
34 4 7 0.41 -2.0139513138400016 -4.087201955922389 -13.033406505233321 -12 -7 6
1041 1 6 0.4241 -6.228220209603984 -1.7829826381568807 -15.047158963160475 -13 -7 4
2649 1 1 -0.106 -3.7268775139475743 -7.994915583708108 -9.971562325247127 -13 -9 5
1608 1 3 0 -7.867493571228865 -8.633160212653843 -12.866947877586473 -14 -8 3
2641 1 3 0 -4.419022582412232 -5.464446355450832 -12.721088204160985 -13 -9 5
2667 1 5 0.053 -3.936340253359962 -9.072950658112688 -10.074929411537951 -13 -9 5
1619 1 1 -0.106 -3.115958337787699 -8.170297798806539 -15.034641037057183 -14 -8 3
2668 1 5 0.053 -5.5982265951366195 -4.214901335161516 -13.935784719932073 -13 -9 5
2643 1 3 -0.1268 -3.2444935827479124 -0.963400345514561 -13.709529316117159 -13 -9 5
947 4 7 0.41 -1.2249457729248405 -3.1818479947551364 -12.06913854913389 -12 -6 6
1622 1 5 0.1268 -5.655926856628005 -7.64670741406133 -14.172163647445103 -14 -8 3
2402 1 6 0.4241 -7.354044769344558 -1.0055464061228925 -8.96347557481143 -14 -9 4
2651 1 9 -0.4506 -3.077390517413342 -5.729654841899139 -8.587200755693765 -13 -9 5
171 1 1 -0.106 -2.1891522085830832 -0.588579589446983 -8.386195503803664 -13 -9 5
2383 1 9 -0.4506 -7.065691117112859 -1.6734580581958305 -8.325199537812724 -14 -9 4
1588 1 6 0.4241 -13.757247427710139 -14.051943807866813 -6.499053793598401 -13 -8 3
1571 1 9 -0.4506 -13.93967932181241 -16.66574469038455 -2.839353130482481 -13 -8 3
1552 1 3 0.0265 -13.584688449317564 -16.815468020599067 -4.194131676954397 -13 -8 3
1555 1 3 0 -13.095573027960388 -17.068374699117612 -6.936995727616447 -13 -8 3
1553 1 3 0 -12.956032012692376 -15.754305168194755 -4.916373968246845 -13 -8 3
1570 1 9 -0.4506 -14.421018158413947 -13.377065943879355 -6.506023385937834 -13 -8 3
1561 1 3 0 -13.652275268660055 -13.250363314434168 -4.229278920126989 -13 -8 3
1569 1 1 -0.106 -12.521971914339778 -14.394305946463017 -4.429917379985222 -13 -8 3
1562 1 3 0.0265 -14.44645210832592 -12.781139494758737 -5.235294714919537 -13 -8 3
1554 1 3 -0.1268 -12.724222758133424 -15.959259731317115 -6.233945379105181 -13 -8 3
1581 1 5 0.1268 -13.02504812916629 -12.93420110438799 -2.1611162620542643 -13 -8 3
1586 1 5 0.053 -11.993435515348349 -14.56800156166528 -3.4338669307282075 -13 -8 3
1576 1 5 0.1268 -12.200767445145761 -15.101550158499622 -6.6933617687644915 -13 -8 3
1560 1 3 -0.1268 -13.731133472172287 -12.632560274949501 -2.9900698386739855 -13 -8 3
1587 1 5 0.053 -11.862447905129766 -13.97781847886531 -5.265829625597382 -13 -8 3
1559 1 3 0 -14.623295354793665 -11.579782595016443 -2.6592798607501074 -13 -8 3
1323 1 5 0.053 -10.314265040196613 -11.85762420692484 -3.240754273492483 -14 -6 4
1324 1 5 0.053 -9.793985873918118 -10.616982375120848 -4.449191381362343 -14 -6 4
27 1 1 -0.106 -14.765188015725403 -11.082092383264692 -1.2369239276399746 -12 -8 4
1304 1 1 -0.106 -9.5461526202403 -11.622665797384917 -3.9260459811864905 -14 -6 4
1557 1 3 -0.1268 -15.369086948559842 -11.752887366884622 -4.949756889281652 -13 -8 3
1589 1 6 0.4241 -14.857188266037474 -16.300732641215653 -2.969893629822792 -13 -8 3
3024 1 5 0.1268 -12.39535830064085 -11.475217138823954 -1.2086978129875003 -13 -7 5
1556 1 3 -0.1268 -13.636116289024859 -18.109967124854307 -6.225475645462765 -13 -8 3
1551 1 3 0 -13.797725378005515 -18.079029943528028 -4.854301415160801 -13 -8 3
1226 1 5 0.053 -9.042465683285593 -16.596453120780794 -3.2481064712810497 -15 -7 3
1199 1 3 0 -9.167854896309471 -12.754252339630046 -4.84209754901317 -15 -7 3
1558 1 3 -0.1268 -15.503156582888913 -11.174585049394132 -3.684082535878 -13 -8 3
3025 1 5 0.1268 -11.947415208933482 -13.885551462867578 -0.5009450627139351 -13 -7 5
1200 1 3 -0.1268 -8.986038852802455 -14.00941657076538 -4.239898695569266 -15 -7 3
1198 1 3 -0.1268 -9.434179510514507 -12.799341906282146 -6.2243451754022185 -15 -7 3
1197 1 3 -0.1268 -9.33950970661759 -14.034741880454725 -6.86127402690874 -15 -7 3
1228 1 6 0.4241 -8.708234039121567 -17.028342308306204 -6.620528681098033 -15 -7 3
1218 1 5 0.1268 -9.570094333572834 -13.887624248110512 -7.918434476228528 -15 -7 3
1219 1 5 0.1268 -9.730925837103289 -11.829919857923382 -6.6266039241841845 -15 -7 3
1211 1 9 -0.4506 -9.811686924767969 -18.43950508244786 -5.496354368002205 -15 -7 3
1578 1 5 0.1268 -16.16446123399971 -11.475778970164042 -5.699069956107897 -13 -8 3
184 12 7 0.41 -11.979263130796838 -17.810081691668497 -2.9361033491723383 -13 -9 6
1229 1 6 0.4241 -10.282729865273296 -18.392945253250456 -4.614649040039955 -15 -7 3
1201 1 3 0 -8.785486579750557 -15.222573891409128 -4.882904764066506 -15 -7 3
1202 1 3 0.0265 -9.072824132803536 -15.211756106623232 -6.236737983481419 -15 -7 3
1210 1 9 -0.4506 -9.002206311876789 -16.272109746471465 -7.092343640626286 -15 -7 3
48 1 5 0.053 -14.025149604994683 -10.244106846439637 -1.1155662175036873 -12 -8 4
2655 12 8 -0.82 -11.09932539598304 -18.2437858227593 -3.112847952617116 -13 -9 6
1579 1 5 0.1268 -16.24071958576677 -10.381262314733576 -3.4275811800231146 -13 -8 3
1221 1 5 0.1268 -8.872850242661244 -14.113342299290878 -3.1531021806820636 -15 -7 3
1301 1 9 -0.4506 -8.876070330179058 -12.652105462249377 -1.274612033878789 -14 -6 4
1319 1 6 0.4241 -9.429834737494424 -12.27093916570686 -0.5225181031412838 -14 -6 4
49 1 5 0.053 -14.432359892529004 -11.836537250638873 -0.49154616757310166 -12 -8 4
1192 1 3 0.0265 -8.436035809673648 -18.53588620978724 -5.33383064881872 -15 -7 3
2675 12 7 0.41 -10.71829727704046 -18.570244343111632 -2.261738209424564 -13 -9 6
3006 1 3 -0.1268 -11.97676661047125 -11.67809118111662 -0.16282958438389272 -13 -7 5
2793 1 5 0.1268 -12.625773036650775 -10.257048018096027 -5.057330450095179 -13 -9 5
1159 1 3 0.0265 -9.01103967815774 -18.805449596042216 -0.4106002179038519 -14 -7 4
1 1 3 0 -16.092292857969728 -10.542112824382043 -0.9041815764108012 -12 -8 4
1281 1 3 0 -8.37636857322088 -11.202871547663356 -3.1302933341436603 -14 -6 4