LAMMPS data file via write_data, version 2 Aug 2023, timestep = 980000, units = real

3676 atoms
3 atom types

-16.76558630273882 16.76558630273882 xlo xhi
-16.76558630273882 16.76558630273882 ylo yhi
-16.76558630273882 16.76558630273882 zlo zhi

Masses

1 12
2 1.008
3 15.999

Atoms # charge

369 1 -0.05412255359419664 -15.031855373058201 -15.461563782985408 -12.843835216050005 -13 -7 4
366 1 0.227514512327237 -15.074760062562607 -15.312607976677818 -14.22530738451062 -13 -7 4
429 1 -0.002870951162652607 -15.37942181507183 -14.302941405561283 -12.047371288995258 -13 -7 4
1024 1 -0.001494478268589158 -16.695414074290085 -11.162749058527561 -9.626028012238528 -13 -7 4
430 1 -0.008467834067553852 -15.469430198694528 -12.998354085322013 -12.752504703208594 -13 -7 4
1035 1 0.002515344104982532 -12.248160333655916 -10.085202589758602 -10.378741559707391 -15 -7 4
432 2 0.0707462708005268 -15.315153600885964 -14.180076234553729 -10.888824043323323 -13 -7 4
433 1 -0.04724753533185633 -15.272450836453203 -11.872680777087442 -11.642054067607036 -13 -7 4
427 1 -0.02292490043848272 -15.833595702091193 -12.982030968670788 -14.053962975785906 -13 -7 4
1033 2 0.02069200845121982 -12.62107809168443 -10.585029797765673 -12.519879334841356 -15 -7 4
425 1 -0.02213809967785546 -15.596169259568192 -14.102992077831825 -14.809069073372411 -13 -7 4
434 2 0.05104130092130525 -14.362139369837374 -12.339492003869365 -11.30773882447667 -13 -7 4
1034 1 -0.01078591129959097 -12.006462592185647 -10.655511285340912 -11.647808271612403 -15 -7 4
1032 1 -0.05345976699227929 -11.155205873178476 -11.735876237267986 -11.615881721901006 -15 -7 4
1031 2 0.02963696993458784 -11.399639274086034 -12.60897404900734 -13.66691917732813 -15 -7 4
965 2 0.04679429727307398 -11.643459058921781 -13.887887168534759 -12.298633816397745 -15 -7 4
966 1 -0.005365564741810826 -11.028370682242103 -12.987541799845571 -12.645609305713633 -15 -7 4
426 2 0.01744134655721801 -16.06694821149873 -11.969868451767214 -14.504649848751148 -13 -7 4
1558 2 0.007575977836354647 -14.275646162373844 -9.621398924383433 -10.08584929107253 -13 -7 4
1027 2 0.01880848309305076 -15.830730434944696 -10.3239756164678 -9.453189681231734 -13 -7 4
963 3 -0.6246236133699347 -13.887509352062281 -14.449361877689869 -9.279632442108635 -15 -7 3
431 2 0.01786894161304373 -15.159674958402869 -10.864948088953652 -11.95408891482984 -13 -7 4
971 1 0.04589947795330149 -9.69449383113136 -13.310479301819306 -13.029330734976964 -15 -7 4
439 2 0.04080522952754578 -9.48727287376889 -15.184417586569635 -12.17683993347377 -15 -7 4
969 1 0.2880526926461259 -10.281999435789436 -12.011528098904494 -10.5744754159034 -15 -7 4
896 1 0.03012656453594755 -16.036387747141355 -16.40689622224895 -8.44443431407137 -13 -7 4
441 2 0.2950597027413141 -10.83181841474591 -14.94682234867067 -15.259213536046712 -14 -7 4
1036 1 -0.02690536947299729 -13.325138117810573 -8.976685598698142 -10.220249755400117 -13 -7 4
365 3 -0.5890488992763547 -14.805662675559075 -16.54755332085651 -15.061120657102357 -13 -7 4
503 1 -0.02144771075866821 -14.841499725102812 -9.169891231971867 -15.245322624905725 -13 -7 4
505 2 0.03488293526960194 -14.367325716635072 -9.907158994448949 -15.880049673463102 -13 -7 4
428 1 0.004596589614891681 -16.579375654941824 -12.169214426981801 -10.70517986634275 -13 -7 4
1557 1 -0.034391656137689 -10.282754252536833 -11.194407382102643 -9.503335409923965 -15 -7 4
443 3 -0.6647975926363469 -9.929003028006653 -15.263468792593693 -15.246963459872942 -14 -7 4
442 1 0.04876443358017588 -9.008283983966718 -14.471094858255018 -12.72872486921049 -15 -7 4
894 1 -0.04564280609510464 -15.846148575764783 -16.614684035551974 -10.838149647883773 -13 -7 4
967 3 -0.7247590046972654 -9.419116967865913 -13.2845907421069 -10.462091031451829 -15 -7 4
1559 1 -0.01496696655493417 -11.196337560458387 -10.079632149373749 -9.350547519191776 -15 -7 4
501 2 0.01948940308439644 -16.071864809402275 -9.462229803186052 -13.137299892265684 -13 -7 4
1038 2 0.05153697442487068 -9.524203942043892 -11.30720961475102 -14.091579936136288 -15 -7 4
506 2 0.01867492412163238 -14.525955767284875 -9.266799612930757 -14.126904043136168 -13 -7 4
972 1 0.01708530507823611 -9.084788720327479 -12.312123233848634 -13.803553274690032 -15 -7 4
903 1 -0.06566176368705771 -11.678756081119198 -15.500721697316568 -8.653363215724974 -15 -7 3
4086 1 -0.01673112866478162 -15.53301576345703 -13.730506031790297 -16.377372111375795 -13 -7 4
970 2 0.3628468736946541 -8.620930588855014 -13.115883805408462 -10.295388696121071 -15 -7 4
1037 2 0.01652736425246948 -13.006834069657195 -8.565540061253147 -9.219728427463277 -13 -7 4
968 2 0.09463843988236226 -11.07033481761039 -14.780922793101755 -9.25689068905971 -15 -7 3
440 1 0.2714645691258918 -9.88062450653851 -16.705634748618067 -14.742274814462274 -14 -7 4
502 1 -0.05699618838812457 -16.409651937189413 -9.19537376938374 -15.252081169326916 -13 -7 4
961 2 0.2931033042518254 -14.78596273182156 -14.337540405373973 -8.865591036679213 -15 -7 3
4087 2 0.05772059287096737 -14.529099024300834 -13.08059604286277 -16.591971361427813 -13 -7 4
436 2 0.04247929310562877 -11.595399628821243 -16.177777936012237 -13.767709776851921 -14 -7 4
920 2 0.06059269485140473 -3.3023912612458384 -8.540112401680418 -11.324735897830267 -15 -7 4
4049 2 0.0920721389532773 -8.355747964296704 -14.718338192167158 -16.37461998177615 -14 -7 4
383 2 0.04088086999674402 -7.314838490976069 -16.155624746559706 -15.259355990530754 -14 -7 4
1448 3 -0.6549332223388132 -0.002870760409851901 -12.621788914867855 -8.561352952574493 -15 -8 3
446 1 -0.08530795578169276 -7.65030652742919 -14.489333952231826 -12.908130271481735 -15 -7 4
931 1 -0.006863202516633256 -0.20343509073756466 -12.462087778206229 -11.869375336219335 -15 -8 3
409 2 0.3755210299836931 -1.1141486285037212 -12.508086312365664 -16.301420008295732 -15 -8 3
408 3 -0.6950864909509592 -0.5470265960180385 -11.985356840123243 -15.87623194745271 -15 -8 3
1492 2 0.06105433840754758 -8.267027156017932 -10.654615453694241 -8.803739341867258 -15 -7 4
395 1 -0.05931239797630842 -4.266941707227015 -16.294823019992446 -14.300899493852505 -15 -8 4
406 1 0.2723104152331423 -0.7956457271138545 -12.211809895055236 -14.39419315168912 -15 -8 3
445 2 0.0713229864751542 -7.177331964242298 -15.28672165210281 -12.301595379770168 -15 -7 4
4110 2 0.08365349486788684 -3.035199094656247 -10.682126209321495 -16.59149154076162 -15 -7 4
981 1 -0.04810518571042237 -1.8080412014223477 -8.895710293305052 -13.426366745455121 -15 -7 4
929 1 0.1968045423719141 -1.486573613382794 -11.986214119627286 -8.719854971165336 -15 -8 3
911 1 -0.07751582705943982 -5.230328406937425 -16.26891612579042 -10.54469275481863 -15 -7 4
926 2 0.03713822111293524 -4.3014474609723 -12.37645964994037 -10.676837004315002 -15 -8 3
466 2 0.09152143658371824 -3.621886348038475 -13.405614051311602 -12.625179324673564 -15 -8 3
979 1 -0.02127035219886019 -4.148909779799633 -9.096120901474949 -11.892109631160263 -15 -7 4
458 1 0.1999886889188846 -2.904597831898261 -16.510096235933247 -13.909732671473389 -15 -8 4
842 1 0.002075010371164743 -5.2836768633425315 -15.591964765359684 -9.278232836714919 -15 -7 4
917 3 -0.686857939943827 -7.255231236414927 -11.147821099455118 -11.184130603337465 -15 -7 4
396 1 -0.006143850088231446 -4.398863174205531 -15.818445949994915 -15.728878821172737 -15 -8 4
974 2 0.04669799794307261 -3.470443086331266 -8.795489635893915 -15.113319855879164 -15 -7 4
925 1 0.01017529162350531 -3.873577958682338 -10.61797487335137 -9.347160884184861 -15 -8 3
399 2 0.02503467734863416 -5.288465222844511 -15.829808224747932 -16.278423176314167 -15 -8 4
389 2 0.03803426307308208 -5.940740653071232 -11.78144858714815 -15.274577438379616 -15 -7 4
993 2 0.01917799135660153 -2.7371082567703704 -14.550045128662104 -10.448319771367236 -15 -8 3
388 3 -0.6885132303241546 -5.431534589076928 -13.41365334592705 -13.462219162103887 -15 -7 4
393 1 -0.05404084150342742 -1.9579831800122445 -15.44468619778836 -16.04676468620082 -15 -8 4
407 1 -0.07923535302615639 -1.9786052622796764 -12.919111031655502 -14.048817369621778 -15 -8 3
394 1 0.0229339906895629 -3.366504599408589 -15.4940766474011 -16.47140765744335 -15 -8 4
928 1 -0.03830567717455046 -2.427368423348668 -12.525053303068773 -9.528735392078067 -15 -8 3
384 1 -0.08002972645470691 -7.664018080306803 -12.492523136762737 -13.97380548870251 -15 -7 4
1507 2 0.04393899380372245 -0.43765537972712587 -10.504069864759046 -9.994595526963607 -16 -8 3
451 1 0.01143349294284904 -6.850860942752324 -11.363559688274043 -14.612226081660483 -15 -7 4
923 2 0.08653606005246121 -5.944983958806051 -10.385645649735071 -9.486267680594844 -15 -7 4
977 1 0.0009939147998533175 -4.200649169643163 -9.168827304642392 -13.233914257400198 -15 -7 4
909 2 0.05798206673289896 -4.33171003450855 -16.217174836482716 -11.190906992757048 -15 -7 4
927 1 -0.01842609496068211 -3.718103143319444 -11.910922284652859 -9.809142218663492 -15 -8 3
916 1 -0.05684755498761415 -6.126423583792454 -10.613908133609247 -13.379555164675702 -15 -7 4
973 2 0.04868898657059625 -4.967550056247134 -9.620619439999409 -15.01419440985038 -15 -7 4
465 1 -0.01005878974444664 -2.3961052631038373 -13.156976855185953 -12.694873427807376 -15 -8 3
918 1 0.2524392730456612 -6.024079861421682 -10.703881249238325 -11.99662709946025 -15 -7 4
975 1 -0.007703882653915441 -5.26255995419993 -9.76157794968688 -13.987234338184576 -15 -7 4
4054 2 0.02921004040232991 -1.1386463037791126 -15.271936687646523 -16.7339633620194 -15 -8 4
392 1 0.1228586956660449 -1.8320068855921046 -16.013159674165365 -14.769807314454635 -15 -8 4
865 2 0.04224481977261138 -0.10339822484250295 -15.239711688723595 -10.583037718373587 -14 -7 4
932 1 0.01629547843308143 -1.5117079017561594 -13.08186179925104 -11.650931841744573 -15 -8 3
449 2 0.05009564605258827 -7.692766469878465 -10.734045102287192 -15.06636845916913 -15 -7 4
386 2 0.2935890856685067 -5.161446126708268 -12.77468003584748 -14.057121837004635 -15 -7 4
1504 1 -0.003222784137741637 -1.491684640592994 -9.537742105442758 -12.358931777052987 -15 -7 4
990 2 0.05994032672583256 -1.1834804081844492 -14.167192326947477 -9.960281382242732 -15 -8 3
991 1 -0.03390351080878971 -2.0058189988939685 -13.756293222526468 -10.299135174964896 -15 -8 3
467 2 0.05830794428610653 -2.6304477931824524 -13.276900939373688 -14.839736570541165 -15 -8 3
922 1 -0.01992594780994987 -5.073852420657005 -9.855856934001045 -9.817383826275053 -15 -7 4
913 2 0.01305701910424583 -4.51441779253199 -14.698810447097113 -8.995395005439875 -15 -7 4
1503 2 0.02868496735498841 -2.2127449450662784 -9.84807102896218 -11.679896628340469 -15 -7 4
390 2 0.3242920967983892 -7.564068198258222 -11.756880682251435 -11.727089975786498 -15 -7 4
919 1 -0.03240361830975368 -5.115637719720465 -9.92269568186519 -11.284572288080577 -15 -7 4
382 1 0.2942545544597845 -6.9316832356402776 -13.50398107372171 -13.557177775757264 -15 -7 4
456 3 -0.4167266426769525 -1.5443631642251612 -16.564891727268588 -13.284252145553696 -15 -8 4
1506 1 0.01967443835999466 -0.1802145320609101 -9.513453741636738 -11.877515755954203 -15 -7 4
921 2 0.04761593831641393 -4.947258404753944 -8.85981586075361 -9.3621268460233 -15 -7 4
1439 1 0.01707006431398709 -3.0166377466704875 -10.044687624492187 -8.511821949398945 -15 -8 3
844 1 -0.001103231669254801 -7.292894100902323 -16.647970717979383 -8.694807342471972 -15 -7 4
398 2 0.1104805014311542 -5.231480287657432 -16.324320763445638 -13.732094947065082 -15 -8 4
976 1 -0.005559970375081639 -3.096683004478649 -8.414494377416597 -14.043992194479474 -15 -7 4
2018 1 -0.05595850683540626 -14.519283980046227 -11.919952245029615 -2.5081765957155113 -13 -9 5
2016 1 0.2524182620249958 -15.094502329186652 -13.262067890335077 -2.3370121842072997 -13 -9 5
1484 1 0.00311918499453123 -13.83770486045212 -12.384815595005806 -4.7349455719807505 -13 -9 5
2014 1 -0.07447975645594736 -14.881281130579403 -14.191592907196053 -3.318173184503873 -13 -9 5
1480 1 -0.02337003785120269 -14.228451312518066 -13.653448438448342 -4.499043006777194 -13 -9 5
2012 2 0.06914069825726314 -15.203606102525432 -15.248585448564068 -3.17541230193301 -13 -9 5
1479 2 0.02378373485983858 -13.951917046870744 -14.332414482507172 -5.432384539390174 -13 -9 5
1485 1 -0.0212694617852914 -13.04264738885477 -11.905444924584856 -5.96106951840874 -13 -9 5
1486 1 -0.001704749163487805 -13.861645752092997 -11.439850514965384 -3.5820568541703905 -13 -9 5
1482 2 0.04715083520668637 -13.151977693924161 -12.912113628757538 -6.450744024508961 -13 -9 5
901 1 -0.0557467754455654 -13.760243508369042 -16.250552433296725 -7.496489047046639 -15 -7 3
962 3 -0.6201169597579299 -15.543184242247934 -12.797383667504585 -6.913828351548251 -13 -9 5
1951 2 0.02905009008699855 -14.560978359300707 -10.995562175657772 -1.8473299655044089 -13 -9 5
1487 2 0.06386327817374367 -13.202008420905704 -10.485845310675925 -3.4562300191509814 -13 -9 5
1488 2 0.03444516718831522 -11.955479503015159 -11.51980217187143 -5.874920993215723 -13 -9 5
1481 1 0.2495329360522617 -15.169610619968088 -11.334048883413042 -6.867203214453061 -13 -9 5
1483 1 -0.04120550308071288 -13.802576968441377 -10.872779020542218 -6.615172598001388 -13 -9 5
900 1 -0.02818198899568445 -15.328282359555526 -16.340370776176826 -7.196772287260217 -15 -7 3
1550 1 -0.006104983724737424 -13.631312207707493 -9.4991072266102 -6.651144305432149 -13 -9 5
1491 2 0.02495339094278745 -11.137437617274367 -12.41725107869955 -7.05073642632153 -15 -7 4
1493 1 0.0007755333122146692 -10.208325151201077 -12.813320291471863 -7.164658039027714 -15 -7 4
2089 2 0.2452361513501834 -9.860115858007592 -9.610065173620285 -3.837930291243093 -14 -7 4
1957 2 0.02134479868034783 -11.833493403759473 -13.299085189100282 -5.1633603203340135 -14 -7 4
1955 2 0.06154940155878098 -12.311141738596184 -15.23194325519615 -3.1763821654208306 -14 -7 4
2027 1 -0.04571599002419389 -10.53762914286814 -13.943537685589988 -3.712300310952272 -14 -7 4
1958 1 -0.01163997565884182 -11.030583748377902 -14.015044133592564 -5.109281829562699 -14 -7 4
1892 2 0.01434839181797107 -11.392215443664158 -15.01190706669849 -5.298546549055984 -14 -7 4
2025 1 -0.008372046973237922 -11.470241816668176 -14.564234796647685 -2.9221661849760263 -14 -7 4
1489 2 0.02240959376253756 -9.549897694975561 -10.275724185211653 -7.499936223353707 -15 -7 4
2015 3 -0.6712034924777824 -15.968615999898073 -13.638936147042784 -1.1219005037918557 -13 -9 5
2085 2 0.05288702730001849 -12.345914753556132 -9.37516594413876 -1.6111431260979838 -14 -7 4
2024 1 -0.000494456407471186 -11.313293073876048 -14.066316987137482 -1.6914060373367004 -14 -7 4
2026 1 -0.01544924030329088 -10.36907068812663 -13.144642960879326 -1.1040255562763241 -14 -7 4
2087 1 0.2442151183159228 -10.232862858462347 -10.173211399806295 -1.9566436980506878 -14 -7 4
1026 1 -0.03989667554383257 -16.14546905502173 -10.29297565573968 -7.230360644347224 -13 -9 5
2086 1 -0.07458997533638154 -11.381614218178969 -9.596172778627379 -1.2453220931361648 -14 -7 4
2088 3 -0.6428474586517962 -10.202079984727792 -10.467217361089348 -3.479505798774283 -14 -7 4
2522 1 -0.01801978692682793 -12.19361407401142 -14.503075320185246 -0.5565397969149245 -14 -7 4
2021 2 0.05614812389575941 -13.201209621691635 -14.724021413515793 -1.0051259183325627 -14 -7 4
2028 1 -0.0292202474324088 -9.406190322141772 -12.736974315950594 -1.9382433502457468 -14 -7 4
2091 1 -0.06900303535661437 -9.093891508710586 -10.237800344008111 -1.21454647930044 -14 -7 4
1546 1 -0.01149050392831013 -15.893592219912486 -8.880651078380525 -7.193375769549442 -13 -9 5
1478 2 0.04105334052865771 -15.443139582185154 -15.4566257432112 -6.623847825037734 -15 -7 3
1959 1 0.3074637091095787 -9.448345119688165 -13.21318729599946 -3.3285769996871535 -14 -7 4
1551 2 0.05157855812977819 -12.617047800936334 -9.192289684453351 -6.269057901036087 -13 -9 5
2527 2 0.01001960861949771 -10.477479463557962 -12.5187665772766 -0.07689225024581339 -14 -7 4
1548 1 0.01424645200095157 -14.562487522737014 -8.581695504191625 -6.800471954313341 -13 -9 5
1372 2 0.3156522526234778 -9.650251464823416 -15.6071688369934 -5.196325008166672 -15 -7 4
1495 1 -0.02639549449747873 -9.957198541054536 -13.72048000109842 -6.206202393689105 -15 -7 4
1494 1 0.03064493572491624 -8.940471998298646 -12.304660975834787 -7.72357327126013 -15 -7 4
908 2 0.03560639904594868 -10.020993064050748 -16.691777067825377 -8.098380471773666 -15 -7 3
2080 2 0.3013031531188617 -15.508352528060337 -9.433193579874267 -2.2525591080301295 -13 -9 5
1824 2 0.3198454968050077 -9.984168705274412 -16.39502598582453 -2.908440800560684 -15 -9 4
1556 2 0.2924220754256819 -11.540493606804556 -8.662612829968307 -4.397438548216897 -13 -9 5
964 2 0.2579100076833918 -15.69472166066836 -13.042026433402029 -5.9547102884280765 -13 -9 5
1370 3 -0.6292516760960295 -8.831516668497807 -15.760694819352405 -5.598701010973588 -15 -7 4
1605 3 -0.6222428652510567 -15.97677968474325 -8.664558252941166 -2.296860182341779 -13 -9 5
905 1 -0.006338285662284376 -11.076416076588558 -16.47960685422248 -7.929788395172165 -15 -7 3
2013 2 0.3389574974567259 -15.56467427679412 -14.324595797182845 -0.7862348156635027 -13 -9 5
1430 2 0.3097017484493549 -8.612646667000424 -11.83558061046538 -4.329682663340227 -14 -7 4
1961 3 -0.6177273946698131 -8.491430960426381 -12.795713905581703 -4.3523729226137196 -14 -7 4
1428 1 0.2887074538937136 -8.734177166144702 -14.390282620160697 -6.256336848137978 -15 -7 4
1960 1 -0.008239645242151769 -8.396565623829988 -11.653777234936044 -1.5678590811272588 -14 -7 4
1560 2 0.01232706611139092 -11.190978914280334 -9.621061726636057 -8.321777365781655 -15 -7 4
1490 1 -0.02752528976503407 -9.247059007647646 -10.853906754851007 -8.345718251567304 -15 -7 4
902 1 0.2643301093583166 -13.067445846544176 -15.249572574524755 -8.332209844093573 -15 -7 3
912 2 0.04375278097794795 -6.786250320256336 -12.32258419408788 -7.9032596728970175 -15 -7 4
1387 1 -0.0006949419273237709 -1.020160846841442 -12.831656181179016 -3.5391188833968106 -15 -8 3
1968 1 -0.01862505149055026 -3.5969828017217593 -15.480884190035878 -0.11101566354474254 -16 -8 3
2041 1 -0.05673762129949723 -4.198881706206413 -9.870587251612779 -2.4211026403505795 -15 -8 4
1438 2 0.08952660953517955 -3.2259802068153247 -9.002426619668022 -8.258681148272252 -15 -8 3
1437 2 0.01007824086009957 -1.9513649474515535 -15.555785042380986 -6.3432440440557345 -16 -8 3
2545 2 0.05249367043115239 -0.30461987404757873 -9.01725816861799 -4.032040823580807 -15 -8 4
2549 1 -0.01881855068345634 -0.7709097376086944 -8.3953332135868 -3.150039086214186 -15 -8 4
1395 2 0.03733152016380466 -0.3968242457567053 -15.370546902459223 -5.690912095363753 -14 -7 4
1900 1 0.239666548784388 -3.01769529277634 -16.195110660353325 -3.3202394458944133 -16 -8 3
1377 1 -0.03683861233699331 -2.7870245923345736 -16.210129864862832 -5.777866165475038 -16 -8 3
1966 2 0.2802100906662068 -3.4770763482833402 -14.64571177259381 -4.151063472687385 -16 -8 3
1910 2 0.02917207975095725 -1.193753917248517 -13.657765791037068 -2.8088242126645673 -15 -8 3
1376 1 -0.05678444068197113 -2.3841471705204724 -16.731314071160206 -4.50014438107191 -16 -8 3
2039 1 -0.06575283139483686 -6.003712059555418 -8.890866012425471 -3.812932255142069 -15 -8 4
914 1 -0.003520837157750274 -6.322398730745573 -14.957843506965592 -6.982695024774194 -15 -7 4
1496 1 -0.008596329589338963 -7.700524798700182 -12.830272864799326 -7.488818979969623 -15 -7 4
915 2 0.02909667897120925 -5.282585546731219 -14.38774409967794 -6.684598000017093 -15 -7 4
1444 1 -0.003081033612575758 -2.224290910820132 -11.715758505644224 -5.49559543875079 -15 -8 3
1440 2 0.04757805286696747 -1.6059393153649226 -8.970161160318135 -6.901738792941852 -15 -8 3
2030 2 0.07132655847882645 -7.982719814591844 -11.580557615790726 -2.6026176287754423 -14 -7 4
1973 1 0.2613649225723817 -3.9922509686889587 -10.814199813936137 -1.4251584433089362 -15 -8 4
1972 3 -0.6399771329932163 -5.210862654148401 -11.545816268663437 -0.8494586115792809 -15 -8 4
1433 3 -0.6132357295381186 -3.909032012350901 -14.986157448594845 -3.4537323670019004 -16 -8 3
1432 2 0.06049490681013404 -6.394793154015121 -15.956896215348722 -6.466100899025827 -15 -7 4
1384 1 -0.03053180869490555 -2.113964647467464 -12.534738759649743 -4.317962426550365 -15 -8 3
1442 2 0.04758851490116263 -3.151030333300825 -11.689756527548706 -6.1024796873322 -15 -8 3
1963 2 0.04170140392243142 -7.838848934254891 -12.004156223848277 -0.7101788770365779 -14 -7 4
2045 2 0.06659210812880195 -5.881751432089704 -11.037227005055318 -3.2325820116260684 -15 -8 4
1502 1 0.2185880007322998 -5.914540115058031 -8.786347212987366 -5.209988762004997 -15 -8 4
2547 2 0.02277580410402329 -0.5541482937184365 -11.021341001865036 -1.9048955546463422 -15 -8 4
845 1 -0.01112467503885341 -6.266564693679019 -15.65088064235074 -8.341349989243861 -15 -7 4
1434 2 0.03129515843127267 -3.744903363844427 -15.631102744951868 -5.580190693878724 -16 -8 3
2042 1 -0.007324112606776872 -3.203281438637299 -9.13943626622129 -3.087705077370085 -15 -8 4
1383 2 0.05460245059159143 -3.079578502848491 -13.046453169653866 -3.9903578265555315 -15 -8 3
1975 2 0.01449241177818326 -6.041105374240891 -9.955703730364304 -1.9016266672613662 -15 -8 4
1429 1 -0.009016450790870763 -7.566015640949778 -14.141260398831486 -6.9993700643734105 -15 -7 4
1443 1 -0.008587288343746989 -1.084375381487297 -10.029865738475614 -7.171598234744326 -15 -8 3
1435 3 -0.6387871175222097 -5.434192024361157 -9.878691990621302 -6.18636123597172 -15 -8 4
1445 1 -0.05127254020401271 -1.0302476176339144 -11.005058847288351 -5.856805185481904 -15 -8 3
1441 1 -0.05453782059652248 -1.9065974566268677 -10.765743396931416 -8.18766777546709 -15 -8 3
1436 2 0.3069038488014166 -5.871887382369822 -10.494342103474581 -5.713375607792294 -15 -8 4
1971 2 0.03972108364382856 -2.1631131262320955 -14.561134606436648 -1.3387849493483868 -16 -8 3
1970 1 0.009688679774618769 -2.7582000236466935 -14.455131495104418 -0.44249943182005463 -16 -8 3
2040 1 0.005934307517891322 -5.599602560555687 -10.058284480512283 -2.885709770636776 -15 -8 4
1977 2 0.300603061811022 -5.894999263322173 -11.017326251887125 -0.7495030060425147 -15 -8 4
869 2 0.009773053133005725 -1.0998998801813848 -15.571971281059342 -8.003357624774809 -14 -7 4
2044 1 -0.008565430080415083 -1.860269159332342 -9.584352552182866 -2.8931091131909645 -15 -8 4
2546 1 -0.02025186658737656 -1.6431823000624528 -10.708158262944174 -2.0035620701526033 -15 -8 4
1974 1 -0.03387493047328347 -2.6352306857025742 -11.04319681473311 -1.0304312523210313 -15 -8 4
1976 2 0.007665503707414205 -0.9636308188272813 -12.374576406880044 -0.34880018452711964 -15 -8 4
1964 2 0.06908701582178212 -4.876333450492234 -16.41301917567166 -1.252598433554814 -16 -8 3
2035 2 0.01442462492562248 -5.800763907891006 -9.238766541265083 -0.2823249893056465 -14 -8 4
1390 1 0.01372416418282989 -0.06425505240514075 -15.44236874055302 -7.77209366779163 -14 -7 4
1446 2 0.009661704306595966 -0.11956381470387621 -9.902412759634606 -7.641220793201072 -15 -8 3
1369 2 0.04436992847114509 -8.134194716929272 -16.654345127350215 -7.964234626361632 -15 -7 4
2424 2 0.0335456080585672 -0.042931302402255664 -15.223976491698082 -0.12307133982603201 -16 -8 3
2512 1 0.001438777213770663 -15.633223045238568 -16.409773456651582 2.791650127549619 -15 -7 3
2513 2 0.02975127439133673 -15.476588338392405 -16.002768989701433 3.93884148309117 -15 -7 3
2511 1 -0.01460552393222271 -16.21601120423408 -13.094967019709664 1.441969414363413 -13 -9 5
2516 2 0.02700101645624482 -14.73840705448859 -12.669440770092525 3.704307251338943 -14 -8 4
2519 1 -0.03035859192891743 -12.939807927107312 -11.56934205995011 3.2921711504714435 -14 -8 4
3065 1 -0.0355207428771072 -14.692895970163617 -10.994604380032092 5.102744082846967 -14 -8 4
2521 1 -0.001683840680885267 -12.36231457560182 -12.901550580312191 3.0780384832314245 -14 -8 4
2520 2 0.01295799997553836 -12.98322918772358 -13.798847217917276 3.192346076533859 -14 -8 4
2524 1 -0.01532444675921347 -10.928699813670422 -12.957401243513809 2.9660654236035 -14 -8 4
2525 1 -0.03026202734914025 -10.40150394647492 -11.848239191868176 2.306269853673863 -14 -8 4
3068 2 0.03714065611735276 -10.39258170190279 -14.300269607172877 6.164223197149387 -15 -7 3
2517 1 0.004745700400108417 -14.491394777232754 -11.576843410488546 3.654883610662584 -14 -8 4
3056 1 0.01267029199568569 -15.547535591066461 -14.047469876030338 8.179319917621635 -14 -8 4
2526 2 0.008413548795770815 -10.605286242503169 -13.934391310440947 2.8890186139691933 -14 -8 4
2514 2 0.03149931631374286 -15.0644380730855 -10.809207441038776 3.0698737694278715 -14 -8 4
3125 1 -0.002296481105236125 -15.69877728803702 -9.975973822474998 5.272222715260693 -14 -8 4
2589 1 0.2333417829218939 -12.28238724273754 -10.443812436273474 2.8899205153798473 -14 -8 4
2593 1 -0.004149106419297693 -10.884795730867571 -10.559321081707258 2.6628947056806376 -14 -8 4
2509 1 -0.06415722634109142 -16.20359901265836 -15.675435867181866 1.7159334825949497 -15 -7 3
3062 3 -0.6519252982780273 -13.175807790613081 -12.779077390261216 5.926560069648025 -14 -8 4
3064 1 0.2727495625478312 -14.118740121224361 -11.586194382451472 6.1644541357396765 -14 -8 4
2515 1 -0.00169245494428924 -14.934404483416584 -13.245890881309748 1.3402204765263475 -13 -9 5
2595 1 -0.006154247675054408 -9.89255829142182 -9.540634249416895 0.7894210673184996 -14 -7 4
2594 1 -0.01717006757550155 -9.966345695587666 -9.420283506263567 2.3472871055517293 -14 -8 4
2588 3 -0.6379057783275062 -12.853615897584962 -8.983227677768568 2.7435157577595986 -14 -8 4
3565 2 0.06301784182525927 -10.169537586259489 -11.785353697309974 4.859603642794306 -15 -7 2
3567 1 -0.02193325278213393 -9.262415026629498 -12.181973966431995 5.625821831180869 -15 -7 2
3569 2 0.05430153531781896 -8.683112885101623 -12.934680100062117 5.157109704039833 -15 -7 2
2518 2 0.01661963831633149 -14.629851732217837 -14.219611767728376 1.429444067839902 -13 -9 5
2082 1 -0.05410348255991613 -16.26120264527683 -10.935097437002904 0.6707156464870406 -13 -9 5
3069 1 0.2629188662451373 -8.798842030592882 -9.47996025454103 6.049548046489918 -15 -7 2
3126 2 0.06904218073712681 -16.284655787166734 -9.476207702586862 4.534217135700661 -14 -8 4
3124 1 0.01375998554406019 -15.882490126709708 -9.640329788823498 6.614756421570409 -14 -8 4
2991 1 -0.01178692893535995 -10.504503966587544 -15.256003670436604 5.516514001212502 -15 -7 3
2988 2 0.03940906217314648 -12.557332937140007 -14.939188982202708 7.27513975556455 -15 -7 3
3561 2 0.09773195167374332 -10.779711494956425 -10.802467876019586 6.639307766090213 -15 -7 2
3063 2 0.2792295351467749 -13.547411311480568 -13.472759864154085 5.371515759919901 -14 -8 4
3066 3 -0.6246977270823779 -10.191951306732722 -9.14640746624009 5.629724783956772 -15 -7 2
3057 2 0.04459811333117717 -15.052873477986944 -14.042150815259193 7.1979172034946 -14 -8 4
2528 2 0.01735251141797094 -9.48281584839188 -11.71648306267367 1.679221028085603 -14 -8 4
2462 2 0.01764714339735881 -9.75139599713135 -14.60961720395565 0.6927061515800806 -14 -7 4
3566 1 0.02010124705315927 -9.550953874106265 -12.450802479333454 7.064494584732538 -15 -7 2
2458 2 0.01552264506613235 -10.391484177857173 -15.096930006428273 4.481064046135874 -15 -7 3
2993 1 -0.07764631734625974 -9.461817652000542 -16.283677462548937 6.094139160536806 -15 -7 3
3060 1 -0.0371911493700629 -14.38572197013996 -11.376464433936507 7.410534486541289 -14 -8 4
2989 1 0.001545514491929786 -11.917094242886257 -16.03756519661612 5.478069368925713 -15 -7 3
2987 1 -0.006619046703568259 -12.788666558168526 -15.809486556105423 6.609032382069969 -15 -7 3
2083 1 -0.0009711931139928139 -14.81983367716793 -10.937837501288243 0.92293766161994 -13 -9 5
2017 1 -0.006674716472826463 -14.174788253587083 -12.206553770965542 0.9056922004732937 -13 -9 5
2596 2 0.03548759887753918 -8.999524115135207 -9.420513415626903 2.930377428797747 -14 -8 4
2459 1 -0.01663309464361609 -10.159041228994226 -15.608277529253172 0.5601363971229388 -14 -7 4
2523 2 0.003266164218337916 -12.091152141765177 -13.722836435883332 0.3537790739148436 -14 -7 4
3059 1 -0.009853955172243172 -15.244211421068767 -10.268733997176392 7.642391924126015 -14 -8 4
3563 1 -0.005138733047888706 -10.183313207245725 -11.335858889988746 7.442590215700782 -15 -7 2
3061 2 0.08240603322960968 -13.224807958292246 -12.732908841918015 7.964797877827425 -14 -8 4
2011 1 0.2655720959870753 -16.495627932338678 -16.324455480983556 0.46497659977733313 -15 -7 3
3637 1 -0.01360141490074406 -8.9219619999981 -13.20849297975897 7.852201220130668 -15 -7 2
2590 2 0.0660529058746924 -12.00905243383677 -9.032361934327351 0.5308579753381885 -14 -7 4
2510 2 0.03193714326792767 -16.740482880015364 -14.397012731985487 3.3217710876081883 -13 -9 5
2451 1 -0.02683878906660854 -12.33294627119141 -16.684346278139298 4.3345763075724335 -15 -7 3
2587 2 0.2943408038192333 -13.091335176424215 -8.729854458091049 3.635104485520957 -14 -8 4
2597 1 -0.02296937815312788 -8.858235941968966 -10.028952925409296 0.20181675679755423 -14 -7 4
3570 2 0.03052578343292036 -8.776943473768414 -14.240011251923478 7.532308051376714 -15 -7 2
2461 2 0.006800206434152219 -8.600501563150718 -16.442492715599457 3.321454935330135 -15 -8 3
2591 1 -0.02352205528365769 -11.116626213811436 -9.175141746323249 0.011708925482694874 -14 -7 4
2584 2 0.07878465915366631 -15.710712464640684 -8.414525950633365 2.6707605044911986 -13 -9 5
3067 2 0.3207923276511299 -10.552891901719542 -8.428622557848652 6.192874942924865 -15 -7 2
2019 2 0.007399319721407804 -13.067096548441995 -12.240063522687269 0.876402563189143 -13 -9 5
2084 2 0.04830567964832017 -14.363649142249663 -9.812204896516324 0.8369237115771649 -13 -9 5
3131 2 0.02329951358320674 -10.296547581247784 -8.784192942090835 7.846813110310185 -15 -7 2
3132 1 -0.0009875016508138698 -9.243501840150971 -9.265171276496396 8.233196807199947 -15 -7 2
2592 2 0.07701411234134718 -10.65976678038742 -8.467979291658757 2.493036828355192 -14 -8 4