LAMMPS data file via write_data, version 2 Aug 2023, timestep = 3120000, units = real

1945 atoms
3 atom types

-16.76558630273882 16.76558630273882 xlo xhi
-16.76558630273882 16.76558630273882 ylo yhi
-16.76558630273882 16.76558630273882 zlo zhi

Masses

1 12
2 1.008
3 15.999

Atoms # charge

3834 1 -0.002077298365134959 -11.085957857748062 -15.782461060535985 -15.89310812078255 -15 -8 3
3905 1 -0.0006448616963716444 -10.471153645918221 -14.385090553869581 -16.147427984575238 -15 -8 3
3907 1 -0.002243498656690969 -8.774268041930974 -14.372977064731696 -16.038588035488594 -15 -8 3
3254 1 0.0003631162804498492 -16.475904168316873 -16.044665631640772 -15.737149426835366 -15 -9 4
3326 1 -0.002175111979136316 -8.391869899057413 -11.571631382985444 -15.875774299635717 -16 -9 3
3380 1 0.001491384660195591 -8.534997318976586 -10.854640929276902 -14.660138398066021 -16 -9 3
720 1 -0.001334733170770097 -8.765790984171897 -8.899985148764008 -10.107682211692707 -15 -10 4
719 1 9.010224511796228e-05 -8.782621580227424 -9.899620238388916 -10.807110261050019 -15 -10 4
196 1 0.0002818534455716615 -12.227184481704299 -16.325965908787765 -15.467448129082312 -15 -8 3
3378 1 -0.00033220599522997 -10.625240396263363 -13.15348881075589 -16.686843580783695 -16 -9 3
3835 1 0.0003674142409041958 -8.151322382634207 -15.500468003737419 -15.46506167622549 -15 -8 3
2895 1 6.948417072804441e-05 -2.426325518395408 -12.734615615763433 -16.419138889143067 -15 -8 3
65 1 -0.001445583448738907 -8.292433241892299 -9.321765916019348 -14.672364164926533 -15 -8 3
3328 1 0.0009409285416953628 -8.272394540606777 -10.949443673363215 -13.184259700298412 -16 -9 3
727 1 -5.852342470082095e-05 -8.023629869318363 -10.88998656084428 -11.548318185790095 -15 -10 4
161 1 -0.004066255413615331 -0.849574639729154 -13.797488303446903 -13.440376871110637 -15 -10 4
3904 1 -0.0004844191110802143 -8.135158325357947 -13.034301374059826 -15.673964364318703 -16 -9 3
3783 1 0.0004922025563194042 -4.406214961104722 -15.145781714765358 -16.054517169514543 -15 -8 3
3339 1 -0.00258253589770191 -3.0418326561197717 -16.035960871112863 -16.269490562681725 -15 -7 2
3778 1 0.000121378512270634 -6.791314557953601 -15.10451348709833 -15.366716581089303 -15 -8 3
3704 1 -0.0006237705634788288 -5.483380301084823 -13.296003890813738 -15.177699684208662 -15 -8 3
157 1 -2.14626933655454e-06 -0.8325557958337526 -13.381687692269184 -12.067903686158106 -16 -9 2
729 1 3.555175953235887e-05 -7.119959556461737 -11.779394188787675 -13.351896340001975 -15 -10 4
2353 1 -0.0005558604073398442 -2.8841523112833483 -13.540148431170715 -15.40298316628726 -15 -8 3
655 1 0.0006524037083495034 -5.9564638852377865 -12.77125624012261 -13.082814434572983 -15 -10 4
3705 1 0.00131285186543513 -4.195811808625574 -13.523367538491678 -15.890355279593468 -15 -8 3
151 1 -0.002254643224382825 -0.3067200668921035 -14.790808679998625 -9.479015296245116 -16 -9 2
3780 1 -0.000919638515784877 -5.501039019305176 -15.881778223194587 -15.26372277531092 -15 -8 3
654 1 0.0009268269685068983 -6.156357621690797 -13.504377273829878 -11.818545057265524 -15 -10 4
155 1 -0.003380352744222742 -3.981851040123872 -14.282489665400194 -10.503817003243338 -16 -9 2
717 1 -0.0006913546925566838 -7.484617989000673 -11.930629686200703 -10.846761881040067 -15 -10 4
150 1 0.0009259539015749225 -3.0185537577651282 -13.657593929440669 -12.925961070778127 -16 -9 2
598 1 3.022104791758351e-05 -2.564702654023242 -13.75789151850285 -10.341356611835199 -16 -9 2
722 1 0.0004675937104629685 -6.559430124716931 -12.704451256262526 -10.716136988141578 -15 -10 4
3706 1 0.0002416246608637641 -6.859056109858814 -13.691410163494409 -15.198927543066679 -15 -8 3
741 1 -0.0005951874008381236 -2.1588051801963886 -13.586742793080244 -13.996016413706775 -15 -10 4
597 1 -0.0008780359282199272 -4.895917745218795 -14.199160886008741 -11.59871160568558 -16 -9 2
160 1 2.237494582038937e-05 -2.0936645199600084 -13.531262640333113 -11.705954767431452 -16 -9 2
152 1 -0.00392027888643981 -1.7169368763128978 -14.287871682485758 -9.312482579721603 -16 -9 2
658 1 -0.001802925784902201 -4.436441193110181 -14.140554718377983 -13.003245840547738 -16 -9 2
657 1 0.00193617553189325 -4.878149513054077 -13.309962985964951 -13.7763670551327 -15 -10 4
212 2 0.02522291741313683 -0.5417130730178619 -14.71202937270368 -15.726786448247434 -15 -10 4
137 1 -0.01671480269557751 -16.167459181877817 -12.534351976136973 -1.9595062930702383 -15 -8 3
1701 1 -0.01194607589904596 -11.604754861326423 -12.892991251464393 -0.34769776572288263 -15 -10 4
1700 2 0.01682640093528585 -11.883035417378748 -12.180671481770547 -1.2640231593742504 -15 -10 4
138 2 0.01950049298137359 -15.167649957494424 -11.999691685935133 -2.0935392060388365 -15 -8 3
136 1 0.001811927121189185 -15.860395037541066 -13.402775109851003 -0.8731877191461039 -15 -8 3
1246 2 0.02275657794393115 -9.547722191229347 -12.090456130804906 -0.159399697215365 -15 -10 4
1628 1 -0.0008867263093192204 -8.52084448656623 -16.59148187631047 -2.045011377987132 -15 -9 2
1626 1 -0.001246438152107107 -9.45868546568774 -15.956771075750977 -0.21061828488244114 -14 -9 3
1195 2 0.02176951231246053 -3.8837286008405565 -8.517020691616452 -8.124707505817284 -16 -7 3
1630 1 -0.01792623971459438 -6.632852720738699 -16.025569040071318 -0.4941810220976978 -15 -9 2
1775 1 0.0003528079707329906 -0.28399171661177186 -9.408909839303696 -0.7056680506087301 -15 -8 4
1627 1 0.001090759505875553 -8.145538772232783 -15.937070831287844 -0.901897232843713 -15 -9 2
2167 1 -0.001009367253241963 -0.549616295383144 -16.2438633476979 -2.4811005429351702 -16 -7 3
1045 2 0.01906561070372653 -0.9041248255525133 -11.37974713085956 -5.635197253627383 -15 -9 2
2040 1 -0.003622478186106712 -1.916333611246076 -15.2617174429442 -3.7899021942711926 -16 -8 3
1502 1 0.000658512092443695 -2.281652187402635 -15.164121975603802 -2.455916548674559 -16 -8 3
2236 1 -0.001423448613803061 -0.041989070416891115 -11.68623808719533 -1.0766800989678358 -15 -8 4
2169 1 -0.001482084433517127 -0.9867642831496871 -16.414845348834156 -3.723149147309878 -16 -7 3
1650 1 0.002355743572768514 -1.1381591148124959 -9.253272315987173 -4.389423143304296 -16 -7 3
1048 1 -0.003351320401183671 -2.9716280807851256 -15.707042518804899 -4.776336758895416 -15 -9 2
1709 1 -0.01079370531138684 -1.0041215717566232 -10.647825966688504 -4.702565429990904 -16 -7 3
2036 1 -0.002564769233714525 -4.248377361026731 -15.910456356665337 -0.7874751085783526 -16 -8 3
1778 1 -0.001499541919260883 -0.5602916938564454 -8.577876993117805 -3.237492580425421 -15 -9 4
1781 1 -0.0001152718582854463 -0.5238514831749345 -9.677398512924242 -2.2974739911466497 -15 -9 4
2771 2 0.02544069105681828 -0.1894502887863339 -12.473712578921976 -3.6757012215204847 -15 -10 3
1648 1 -0.03933116869649569 -0.047039441180147315 -11.438470859531886 -3.754438289202214 -16 -7 3
1192 1 0.003915403236491879 -3.2587356601039885 -8.506646534212305 -6.1045420491068105 -16 -7 3
1043 1 0.001076445406049675 -4.187192712821879 -15.76411990575782 -4.589360038651834 -15 -9 2
1565 1 1.260401057148752e-06 -4.474242809605561 -16.021360490336054 -3.165156540433686 -15 -9 2
2287 1 0.0010807702826253 -0.45992284854154886 -11.070644327467804 -2.2790093601656998 -15 -8 4
2037 1 0.005299155782378776 -5.558819848255284 -16.217095937699984 -1.2590690175660684 -16 -8 3
2034 1 0.001364165617032585 -3.5474830644439175 -15.681082714933215 -2.0107528957981327 -15 -9 2
1501 1 -0.0001373911274627653 -1.2891556102868735 -15.5487828264927 -1.3470348408508515 -16 -8 3
1046 1 -0.002828852729549615 -4.740478873465732 -16.622717078511183 -5.393189766813625 -15 -9 2
2175 1 0.001093999264058468 -1.9074112967626071 -16.49894388378967 -0.4734122287209128 -16 -7 3
1243 1 -0.0213504891575595 -4.074679992567851 -8.485545537739407 -7.045347026721838 -16 -10 3
1173 1 0.0003446352109303732 -14.31283239512349 -12.971697812396648 2.2313614898788248 -15 -10 4
1890 1 -0.0015972731884119 -14.392832628949371 -12.350081089320305 3.4937619750919575 -16 -8 2
2274 1 -0.000119778870685882 -13.536408104126153 -15.835922041984904 0.9342124516825061 -16 -9 2
1179 1 -0.0003177943089322337 -10.153456544533476 -16.264654070400958 0.923531723547183 -15 -10 4
1818 1 0.007487576379061344 -14.943894537030408 -12.77497423520378 4.688879235359571 -16 -9 2
1754 1 -0.007013278707239216 -13.409150640692454 -10.145453632396164 4.686750458774654 -16 -9 2
2276 1 0.001558832731620176 -12.397150590555785 -8.9471657538426 4.456910394224054 -16 -9 2
1753 1 -0.05452395207193192 -14.49239982057132 -12.11315497460889 5.981374180485849 -16 -9 2
1819 1 0.03482045857538592 -13.499438425856159 -10.967807766816904 5.785727729677348 -16 -9 2
1104 1 -0.0001503125101506037 -16.26397300003053 -15.320494730897245 0.221691380676685 -15 -10 4
1816 1 0.223478654920825 -14.41912261855703 -12.912702410126924 7.128818185717963 -16 -9 2
2325 1 -0.05211150693604275 -13.12912237380288 -10.217706491954173 6.965252618622359 -16 -9 2
2273 1 0.0009772485799600193 -14.020890120530423 -10.808262682643756 3.54638280041119 -16 -9 2
1170 1 -0.0007838511214494533 -15.006065061886702 -14.248031470945934 2.247471016701836 -15 -10 4
1811 1 -0.004480815961512931 -15.666350606306258 -14.087501857846483 4.638754654468268 -14 -9 3
2410 1 -0.003996299464182479 -14.490113021595606 -9.830423762471153 2.954518711118265 -16 -9 2
2412 1 0.001147726999986977 -14.443930066546741 -8.74986983126378 2.251123161627498 -16 -9 2
1177 1 0.0004730912951952937 -10.933275472626828 -14.921887636451611 1.0943432442955354 -15 -10 4
1107 1 -0.004217642918190642 -13.938932462316195 -12.76505387651473 0.8221704281287637 -15 -10 4
1812 1 -0.001598466036506034 -15.961920171494146 -14.609163862908474 5.9672866156382645 -14 -9 3
1282 2 0.01916042451100713 -15.641937930514533 -16.03918045649773 3.336206059185976 -14 -9 3
2212 1 0.0006390917283587254 -12.32667462519113 -14.777111783936808 1.0703462906703864 -14 -9 3
2756 1 -0.001175341752989445 -9.676243168900909 -10.087149904737512 2.234514620191003 -16 -9 2
1166 1 -0.01186036003992466 -15.106643888702017 -14.842388737330602 3.5413608992434424 -15 -10 4
1168 1 -0.001718694831345152 -14.986610607820301 -15.039953203144758 0.953642126720577 -15 -10 4
1698 1 0.002604227372263456 -12.476984290808886 -13.30824098814253 0.6555563774423261 -15 -10 4
1290 1 -0.02603598082120218 -15.924224533114895 -13.401855620626614 7.120253837629944 -14 -9 3
1183 1 -0.004151196211465993 -8.75325042041003 -13.426485311251687 1.8249116285666367 -15 -10 4
2272 1 -0.0005214659088739887 -11.352436354476856 -9.182033105296227 3.8679893358107282 -16 -9 2
2214 1 -0.001628589136670371 -10.699526315793424 -8.878933826496231 2.780233218913448 -16 -9 2
2266 1 0.006887016821069028 -16.03954269915264 -16.03929465638006 6.3794502852649 -14 -9 3
1181 1 0.005400492751799258 -9.833351433439377 -13.788848260678888 0.8536309335047716 -15 -10 4
2753 1 -0.001307634328218236 -8.493107127793904 -10.106187632821813 1.645898769607345 -16 -9 2
2323 1 0.2291058285709155 -13.175238782716187 -11.035796491736168 8.217788704848461 -16 -9 2
2408 1 0.01046161932000441 -13.105619085786797 -8.836634727790228 6.888958311810346 -16 -9 2
1109 1 -0.0005876837534093265 -14.69997598854867 -13.65502059679131 0.0672257133372388 -15 -10 4
1699 1 -0.02030282546785547 -10.170551283933765 -12.817153414999598 0.07692660147691743 -15 -10 4
1182 2 0.02174941615678095 -6.553095007826337 -15.563981136325122 0.5484358440282868 -15 -10 4
1774 1 -0.001208205481371471 -1.5967714526380774 -9.065165102173511 0.33870518909944325 -15 -8 4
1635 1 -0.001910819482945414 -3.6291931512267315 -16.100502566510535 1.3554068203860778 -15 -8 4
1185 1 8.261197541201137e-06 -7.917638192416542 -12.319520098345361 2.269139636329314 -16 -7 3
1498 1 0.001539969463866012 -3.0766070550211326 -16.19216394711777 0.0007470893346476614 -16 -8 3
2823 1 -0.0007466010408424956 -7.558897246497819 -8.715150360263971 1.4197971455969824 -16 -9 2
2829 1 -0.001987342988957683 -7.313799949200128 -11.184524711034877 1.470075169504545 -16 -9 2
2227 1 -0.0004321061775435092 -2.1016134397526023 -14.060356423670555 2.4201392204878944 -15 -8 4
2230 1 -0.01825300981364409 -0.8811129503754545 -13.266024610018112 1.8534563583809802 -15 -8 4
1636 1 -0.0009835042509448435 -2.7651746643539625 -15.13255656421666 1.7803373464981067 -15 -8 4
2226 1 -0.0006277545899348452 -5.92920145556509 -10.889453855070164 1.212298294436015 -15 -8 4
2232 1 0.003303509360171465 -0.8029593448061356 -12.274720206475887 0.9170933947714287 -15 -8 4
2229 1 1.70279182757499e-05 -3.493648766920453 -10.792460746951482 0.40076075011859796 -15 -8 4
2224 1 -0.0007706069088416687 -4.754963148404763 -10.787678136656613 0.8858877125733988 -15 -8 4
2171 1 0.0005989238040728512 -0.7884496606450061 -16.73826124617709 0.4939836919032769 -16 -7 3
2235 1 -0.0009608716830930876 -0.8286759370786084 -11.263182273214895 0.1804386857623852 -15 -8 4
2234 2 0.0211329551129151 -0.011011323422611083 -13.915390012976482 1.90682412798322 -15 -8 4
2845 2 0.01942520016512653 -1.1129814971049772 -16.636467626783023 4.804712037690469 -15 -8 2
1706 1 0.001335404900862789 -2.1851521049664715 -10.425897663296869 0.005797550494887919 -15 -8 4
2402 1 -0.006727889327746081 -13.978448495879707 -9.533408555250192 12.77696308667674 -16 -9 2
2322 1 -0.0552269298352847 -13.843021188379415 -10.216514978235477 9.023350034523755 -16 -9 2
2875 1 0.004028753582031787 -14.0502475222417 -11.738654119342675 14.50928746129678 -16 -9 2
2935 1 0.004335795344115545 -13.974057264754224 -10.546634196911201 13.35937075167762 -16 -9 2
3382 1 -0.02077838499890777 -15.28593885800648 -12.199025026042733 15.003390569583539 -16 -9 2
2809 1 0.001739367449630394 -14.89990133785054 -15.770657724895813 15.147494461656553 -15 -9 3
3324 1 0.005708729587781829 -15.170117220851793 -13.262906427141028 15.821553566894792 -15 -9 3
1740 2 0.06107744802267967 -14.19027042730619 -10.54044333278434 9.993738948362434 -14 -8 3
2868 1 -0.001688654564165913 -15.007627654128415 -14.618312389522625 15.440025982110896 -15 -9 3
3448 2 0.02356670443279877 -15.943723509552116 -11.821107308436542 14.197279653336064 -16 -9 2
3388 1 -0.01575669091784426 -8.970924577291038 -9.478271035213938 14.547741759563573 -16 -9 2
2874 1 0.0007210969452297114 -12.964919319283837 -11.959483944148902 15.092458015466917 -16 -9 2
3389 1 -0.0004262105866166578 -8.903552082249224 -10.30458855291585 15.388033975183061 -16 -9 2
3333 1 -0.003467092485995492 -9.40995544411154 -10.923086854004772 16.515593934442318 -16 -9 2
2876 1 -0.001339135378846681 -11.955597549980732 -12.07211803046072 15.829964235276105 -16 -9 2
3381 1 -0.0007980725459480337 -10.479756229569682 -11.871169075827764 16.273233686041134 -16 -9 2
141 2 0.01705080619998168 -9.761315667793914 -8.666966457388725 14.363275705573892 -15 -8 2
2399 1 0.003086759808522188 -13.720169853424784 -9.04086697350713 11.727277946145193 -16 -9 2
2400 1 0.002416714629062417 -13.397093746107513 -8.79556320853132 9.070243001849473 -16 -9 2
2398 1 -0.02119018688296866 -13.192608813225252 -8.575470839970151 10.615157037915907 -16 -9 2
59 2 0.02139432533449872 -11.461183429647907 -16.420317637624475 14.599582326971923 -17 -8 1
2316 3 -0.4487402412593249 -13.584902828109843 -12.530350372290464 8.416509859483542 -14 -8 2
3575 2 0.02074051990197134 -12.11558543083508 -8.532008963387586 10.583085674737543 -16 -8 1
2872 1 -0.005420675144072636 -16.269472744458437 -13.340792425601771 16.65637652169781 -15 -9 3
2360 1 0.001017987438411999 -0.9259967608659438 -14.203740919004296 10.074004771583343 -15 -8 2
283 1 0.001609432629851431 -0.39335720053630147 -15.774748838757302 14.661731453208917 -15 -8 2
2894 1 -0.0004693630412715109 -1.5985067684475671 -12.491353311607526 16.313425830769287 -16 -9 2
3341 1 0.0003957980503654923 -2.514432780676095 -16.69425822355637 16.262975268431873 -15 -7 1
2350 2 0.02122384893945833 -1.7617602922522992 -12.395314495081232 10.708456200261473 -15 -8 2
2359 1 0.004610603613444736 -1.3530171905831234 -13.834603163237212 12.195264716248191 -15 -8 2
3402 1 -0.02566096848700253 -7.694700384631238 -9.393461919425468 13.702130324432291 -16 -9 2
2835 1 -0.01127791543648883 -5.497179438111991 -9.34395192224791 13.654838592719987 -16 -9 2
2356 1 -0.009295915970575282 -1.924238270417768 -8.942200906117847 13.487016213553296 -15 -8 2
2818 1 0.003049542404044624 -2.9785912914013206 -16.221852812820593 14.948909863731899 -15 -7 1
2843 1 -0.0001878455078326707 -3.3399474489140264 -8.935248177996552 13.519342156448062 -15 -8 2
2901 1 -0.0007563696154751567 -2.952316814028496 -12.393159054527615 13.696525984694372 -15 -8 2
2751 1 -0.0008083485203091512 -0.717964555886061 -15.94649580170367 13.270587976653443 -15 -9 4
3354 1 -0.02420298728506874 -6.4858668449774814 -11.565724963898429 14.995928039602603 -15 -8 2
2844 1 -0.004429579484554379 -1.8457129338471963 -12.405671705591459 12.84598766018041 -15 -8 2
2839 1 0.001727700375705243 -4.6532224054858995 -13.442582419992103 14.873590603928792 -15 -8 2
2903 1 -0.01812960101482364 -1.8860871917337438 -13.449157006333815 10.871789444160845 -15 -8 2
3268 2 0.02037820307820829 -6.616735630296571 -14.718715236249835 14.768743581344292 -15 -7 1
2352 1 -0.000373851746884115 -0.7356673735146075 -9.768425783640415 13.41110936212851 -15 -8 2
2677 1 -0.004419700912018577 -0.23948056686014763 -15.55034060321405 10.156321309326962 -15 -9 4
3776 1 0.004022028123074554 -4.883908301139651 -15.402805974329066 15.971511419193613 -15 -8 2
3350 1 0.007239930914643046 -6.4596930766425755 -10.096198279435644 14.481916531074082 -16 -9 2
2892 1 -0.0005461196705926451 -0.4132306671744481 -12.507930033734734 15.631151597173686 -16 -9 2
2887 1 -0.002993404751443607 -4.039267977982634 -11.412413596153423 14.308003802642764 -16 -9 2
3337 1 -0.00166484222116935 -1.8306882555539488 -15.003215042951997 12.867174741090741 -15 -7 1
2890 1 -0.0004552828541530725 -1.3333787239524186 -11.196444745283184 13.42047712815383 -16 -9 2
3911 2 0.02316022287493896 -7.547834923887964 -9.148143409839937 12.792721567719841 -16 -9 2
2842 1 0.003807374321476736 -4.283070199839458 -10.01812350181797 13.735087828215853 -15 -8 2
3336 1 -0.002058074891778054 -2.700051401126422 -14.880938201422394 14.04909333718624 -15 -7 1
2900 1 0.0006347679944426789 -3.266159797943671 -13.646960484147357 14.418583223669177 -15 -8 2
2888 1 0.001908125864074822 -5.164829215898148 -12.100433002455349 14.718446243544141 -16 -9 2
3355 2 0.02415908051351308 -7.244690767526811 -12.022238906891227 15.445531296036052 -15 -8 2
3775 1 -0.01991747735571402 -5.586193330561639 -14.52208706353135 15.099533301442102 -15 -8 2
2681 1 -0.0008463017912679824 -1.102958056155593 -16.488929311304062 9.367339316856173 -15 -9 4
2746 2 0.02130966074372522 -3.473433582352142 -16.66863276766266 13.035176104326442 -15 -9 4
784 1 -0.001944056404587698 -10.218337049044226 -0.7301002936842302 -10.088752135925088 -15 -10 4
70 1 -0.0009600135473016302 -10.588417760828253 -2.1175298022183107 -12.942738141240266 -15 -8 3
145 2 0.02217827884873874 -12.18432722955408 -3.780308897699665 -10.828223132427198 -15 -8 3
3386 1 0.001057127333403101 -11.733949378373223 -2.1011936924550767 -12.18263863888808 -16 -9 3
67 1 -0.01811053692930022 -12.555969313898583 -3.4859193851831494 -11.789235750538534 -15 -8 3
3978 1 -0.001631515091605681 -9.390444507080439 -1.3070195128467166 -13.564003734392935 -14 -8 3
2569 1 -1.014109287456044e-05 -9.419461897785139 -1.788987688404206 -9.72058022161329 -15 -10 5
3379 1 0.006775998538495642 -14.090581272628182 -3.7820024833040335 -12.021783939328863 -16 -9 3
2567 1 -0.003714028804907649 -13.639100840386801 -0.687598782732966 -12.587064241668697 -15 -10 5
3908 1 -0.002083369640476701 -8.517479653159413 -1.978873371082272 -14.334992927177908 -14 -8 3
3913 1 -0.0008983276540223519 -12.675125371576769 -1.0466534589555707 -11.67713615907051 -16 -8 3
3980 1 -0.001567766637590881 -9.950386880691921 -0.41155224124679235 -14.47569968039985 -14 -8 3
728 1 0.003012982048349426 -11.555594824790035 -0.6779819430475797 -9.406412286319915 -15 -10 4
2565 1 0.001411851150531317 -14.40251273153753 -1.1639803646509093 -14.822861714442311 -15 -10 5
3976 1 -0.001490466687539632 -11.064088749915786 -0.20536269811587 -15.374363486536566 -14 -8 3
310 1 -0.002063226616889638 -13.600558687693669 -0.42282455612322567 -15.924809305915701 -14 -8 3
785 1 -0.003743913483953254 -8.424577135766294 -7.698094501957292 -9.614188628608142 -15 -10 4
2253 2 0.01908816284024055 -15.69557640623606 -5.781499287066577 -12.193557859687813 -14 -8 4
2493 1 -0.004231370231869189 -15.555083116839565 -1.5880039255494658 -14.819329642395948 -15 -10 5
726 1 -0.003186970092271903 -9.611339940790533 -3.316286987936243 -9.951960533141316 -15 -10 4
2933 1 -0.01523197219547043 -15.002381262927026 -4.615725996246059 -12.049839508586569 -16 -9 3
789 1 0.00267453159709774 -8.671786562818584 -4.201928018584014 -9.783729280349982 -15 -10 4
787 1 -0.003904839412560146 -8.554381046486805 -6.5602256955829175 -9.050328196027301 -15 -10 4
792 1 0.001478537723475642 -8.544918690817667 -5.280303416742097 -8.51025628877309 -15 -10 4
314 1 0.0005462508921755121 -12.358849795233958 -0.5325241118855171 -15.561605216657062 -14 -8 3
791 1 -0.02037227182924004 -12.546523235420954 -0.5207286736053083 -10.364328938270877 -15 -10 4
3032 2 0.02211302146731951 -13.609188585333927 -0.18145117743251649 -10.40093953875838 -16 -9 3
256 1 0.02724970195615775 -8.150624600440784 -1.0558989865024753 -9.957387176311288 -16 -8 3
3327 1 -0.004932095117543993 -7.717514929129571 -7.221892646681559 -15.971509296218082 -16 -9 3
71 1 -0.001287324855799812 -8.305584661407499 -8.24330583766305 -15.345316504632217 -15 -8 3
269 1 0.00251020528002023 -4.04579908008502 -0.7349241692080588 -13.114423702483021 -16 -8 3
3384 1 -0.003111532433487038 -7.881246141251931 -3.0449091252172975 -14.703083227845543 -16 -9 3
3399 2 0.01753117551767274 -4.2264019713228675 -2.808293130660515 -12.776103708120663 -16 -8 3
1994 1 -0.002673622068356647 -1.902115431303105 -0.797801757995936 -11.736144595229106 -15 -10 5
3385 1 -0.001043599675675536 -7.9325514204674095 -4.10166789098522 -15.417850980184161 -16 -9 3
268 1 -0.01622194028169628 -4.353923571995969 -1.8720698780408764 -12.180875615495482 -16 -8 3
3387 1 0.00966235632597548 -7.6717196845885 -5.073630808439559 -16.3713486237637 -16 -9 3
1992 1 0.0009165279818471414 -1.8101638703283154 -0.7508710936566164 -13.236548652734447 -15 -10 5
332 1 0.004013590421504232 -3.2556192457581217 -1.5754647158598147 -11.310135923019327 -16 -8 3
808 1 -0.001304984821558018 -3.460341370948987 -1.2045034779686743 -10.09699725148621 -15 -10 4
811 1 0.04132250609472054 -3.4179374634042645 -0.6266433706964699 -8.898245932428305 -15 -10 4
1998 1 -0.006921439303403241 -0.5809307981738187 -1.698156210162859 -15.173820984228962 -15 -10 5
1996 1 0.003479225311102223 -0.5323248005914869 -0.6735365232535175 -14.0692170894729 -15 -10 5
1995 2 0.02045643271464553 -3.0632304056054904 -1.3830077636687985 -14.912813850309822 -15 -10 5
264 1 -0.02350410533112236 -2.9660418191666604 -0.7337101493690801 -14.089168355167494 -16 -8 3
1997 1 -0.01089826190448018 -0.894962648197324 -2.4656935279677867 -16.18951599055466 -15 -10 5
260 1 0.01408390108987712 -5.893461257742569 -0.06154287558874363 -11.479942430171576 -16 -8 3
897 1 -0.006149335068227464 -12.766029918090743 -2.0657729562309344 -7.4792520626053935 -14 -8 3
3593 2 0.02085786017551568 -13.466024322152244 -4.571048057720171 -3.916392815498045 -15 -8 2
896 1 0.00175013118067717 -11.845368070263808 -1.2181716356756371 -6.476956076224731 -14 -8 3
900 1 -0.01894646121737324 -12.738046588818547 -0.9041710215211067 -5.37425369970969 -16 -8 2
1358 1 0.002262722454829107 -15.762992727164578 -4.838950523898715 -3.493382442347051 -16 -8 2
902 1 -0.0001484733423650249 -11.472199656805213 -1.2773663339632495 -3.596236445459256 -16 -8 2
901 1 0.001396326070453119 -12.83123971453345 -1.485921476916633 -4.05277122265212 -16 -8 2
959 1 -0.02008285643621317 -14.554535751877777 -4.4178946543892375 -3.582534714025386 -14 -8 3
1420 1 -0.003662091019321884 -14.052539684206314 -1.7254905655781958 -3.106684110306104 -16 -8 2
1363 1 -0.0002777264863977544 -14.236991098626559 -3.063744981366538 -2.6700428246521835 -16 -8 2
1422 1 0.0006164398364533318 -13.839446766213577 -1.2930369755671831 -1.671154593881908 -16 -8 2
905 1 0.001035349206835597 -12.571421193129398 -0.4779327893946487 -1.1632072957633983 -16 -8 2
725 1 -0.005084494544413808 -14.26516690358226 -2.3441266973792994 -7.888514768811749 -15 -10 4
64 1 0.0008261851385343091 -15.347236267499493 -2.693184040297182 -7.313988621447434 -15 -8 3
1367 1 0.001561468894462265 -15.235054429550946 -4.252760573716332 -0.27525726858882593 -16 -8 2
1425 1 -0.001875889103601161 -14.890032836772873 -1.0086732701140806 -0.48014875883883534 -16 -8 2
1362 1 0.0002053673005434527 -14.929640073991713 -3.2439312109859744 -1.1318859829169754 -16 -8 2
1360 1 0.003311178836317944 -15.599316577052617 -2.7920424861507924 -2.2514383550056407 -16 -8 2
1894 1 -0.002936932963991404 -10.392610254902737 -1.4855768781170846 -4.32804698827528 -16 -10 3
62 1 -0.01679745350351926 -16.48379510236154 -3.1874324958959592 -6.440892901180996 -15 -8 3
795 1 -0.0001487327513547618 -9.204395389546118 -4.925486398921223 -7.369120232921176 -15 -10 4
3646 2 0.02036550286856074 -16.232132219962175 -3.3755277308388667 -5.298961193775044 -15 -8 3
797 2 0.02036037709135114 -10.527156487808208 -3.9169469266297905 -6.608306603931512 -15 -10 4
1320 1 -0.01703429988310894 -9.54709896557852 -4.566354005355539 -6.197415198562683 -15 -9 4
903 1 -0.002799753066277322 -11.379625781712868 -0.44001972293677855 -2.0842539795774746 -16 -8 2
1242 2 0.01810651878567172 -8.413217358377146 -7.532041641634076 -5.663640028745868 -16 -10 3
1375 1 0.01421542519070525 -8.808622257075111 -0.384473266536849 -5.148981255548895 -15 -8 3
1303 1 0.0004377307249277887 -9.215331122517435 -1.6517304369677737 -4.834182962292947 -16 -10 3
953 2 0.02178842575093739 -13.72143590654179 -0.6792334403342559 -5.865622694890161 -14 -8 3
1318 1 0.004049619560021513 -8.50441266095021 -4.124556419145942 -5.208948440594725 -15 -9 4
730 1 -0.004561563325050252 -12.034590057302578 -0.8914084523091554 -7.977001903033952 -15 -10 4
1889 1 -0.0002304684194951861 -16.60238592377167 -3.8290221938512836 -0.10382122107530936 -16 -8 2
425 1 0.0003713300358441831 -16.423229085581752 -0.017411964271840948 -7.658122356309898 -14 -8 3
1918 1 -0.001089795625959867 -0.4773262999990912 -1.6415771114665891 -1.1747314555396315 -15 -9 4
1249 1 -0.001942947600211048 -3.046775017961674 -6.058878616714467 -4.406362646676042 -16 -10 3
1322 1 -0.004552422690547273 -7.25353044900187 -4.8145235149900145 -4.909415882073042 -15 -9 4
1786 1 0.0006970586568875725 -0.24371975866557935 -5.93139392444948 -0.8800217655417953 -15 -9 4
1308 1 0.03577285739175787 -7.176042737881115 -2.001811674710958 -5.731218423603392 -15 -8 3
1374 1 -0.05837116627610572 -7.809016915930737 -0.5193141785648878 -5.997465856301769 -15 -8 3
1313 2 0.02277201598794512 -7.264142852428778 -8.19941257580088 -7.618411961624072 -16 -10 3
1780 1 0.0006527430162255737 -1.1688041093728454 -7.211800798039091 -3.2341564273824486 -15 -9 4
1708 1 -0.00275319432208751 -2.1846916472571007 -8.380606520830492 -4.980458831930059 -16 -7 3
1319 1 -0.02827123446991766 -6.0014746025936745 -2.341627815021598 -4.972665189805997 -15 -9 4
1827 1 -0.01895550306428161 -6.727040212733493 -7.510927037317694 -7.106858045866063 -16 -10 3
1253 1 -0.002070512634860789 -4.066541754802025 -4.100142998752418 -3.153378203283111 -16 -10 3
1784 2 0.02197747905016022 -4.568449397997518 -1.7606442440631547 -3.7169223140221894 -15 -9 4
1245 1 0.006088589720005969 -6.6395009499103 -5.800388505263399 -5.7405456574639375 -16 -10 3
1831 1 -0.01406683612338796 -7.702785843698069 -6.784981067168175 -6.279510783489683 -16 -10 3
2420 1 0.0004990905983302384 -2.0154010753598497 -5.32042255818732 -2.1748094904033106 -17 -9 2
1782 1 0.0008968112199687038 -1.2178990056072831 -6.4324593769002725 -2.0272529354074145 -15 -9 4
1250 1 0.001014690765845185 -4.3202369636531515 -5.667235370396045 -4.780677653848117 -16 -10 3
915 2 0.03584301813112719 -5.081671380107988 -1.997229522837147 -5.311152775544963 -16 -8 3
1981 1 -6.682772697017871e-05 -0.9500351956000456 -3.4652664816660677 -0.2730169676281308 -17 -9 2
1846 1 -0.005232222173743112 -3.745466344272275 -2.73759789074509 -2.619160651746221 -15 -9 4
1191 1 0.001827415750909163 -2.5225663197410126 -7.251408708276979 -4.19710189239879 -16 -7 3
1982 1 0.001508445194548591 -2.455449989506138 -2.779902150845518 -1.9639974392564663 -16 -9 2
1848 1 -0.0160968280703817 -3.7233657070874315 -1.3821485322478626 -3.328153134354245 -15 -9 4
1309 1 -0.007086972449790618 -8.32807220524822 -2.697837216832745 -5.008655566352733 -16 -10 3
1251 1 -0.0001223056841172347 -2.840894351829705 -4.924768017359412 -3.361380551754655 -16 -10 3
1312 1 0.004642193677713749 -5.34331956008768 -7.627259070987401 -6.424931632397741 -16 -10 3
2421 1 -0.0005605533912115528 -2.784703350844944 -4.757531022354298 -0.852974176643701 -17 -9 2
1248 1 -0.001946862194317264 -5.257847760287032 -6.461620455882207 -5.749570035013626 -16 -10 3
1980 1 -0.001115003176206809 -2.229146822185251 -3.617219118907928 -0.8054268781286946 -17 -9 2
1849 1 0.001206034549275477 -1.9547732053787639 -0.19547211645767995 -2.400413975567139 -15 -9 4
1397 1 -0.001353613003497831 -1.5129567953990837 -1.6697512919464803 -1.9619880256640077 -15 -9 4
1321 1 0.003867438657044819 -6.206302651516083 -3.718100179401177 -4.545715094055809 -15 -9 4
1252 1 -0.002802355022449139 -4.851379182860199 -4.449103877095333 -4.294330261673971 -16 -10 3
812 2 0.01545320468985861 -2.448571997895696 -0.474593899040704 -6.081561202927448 -15 -10 4
1785 1 -0.01242606212913465 -3.5558559331583037 -0.20266251070715488 -2.627085834018784 -15 -9 4
1916 1 -3.451911279753195e-05 -0.38499575464195157 -2.2493276410532475 -0.08092617370442552 -15 -9 4