LAMMPS data file via write_data, version 2 Aug 2023, timestep = 3760000, units = real

1668 atoms
3 atom types

-16.76558630273882 16.76558630273882 xlo xhi
-16.76558630273882 16.76558630273882 ylo yhi
-16.76558630273882 16.76558630273882 zlo zhi

Masses

1 12
2 1.008
3 15.999

Atoms # charge

1785 1 8.809185402430808e-05 -14.64197792405244 -15.620720663012206 -15.87824358917642 -15 -9 4
1849 1 5.558076576075988e-05 -15.71503326294425 -14.191304550737156 -13.362762122350146 -15 -9 4
1453 1 -1.047349685567855e-05 -14.34541766195629 -14.290341964269128 -11.07483294217975 -15 -10 4
1848 1 1.5217854416643e-05 -15.479318200939346 -14.935713606806178 -14.888819394694353 -15 -9 4
938 1 2.1777896033158e-05 -15.061990180624313 -14.938264594825242 -12.186341227103195 -15 -9 4
1397 1 -7.0907371320858e-06 -14.18593702449603 -15.925962461752485 -12.632700507138525 -15 -9 4
1319 1 3.327570823814796e-05 -16.49515873223516 -14.412101111614238 -15.802924606598632 -15 -9 4
1452 1 -1.463339620833698e-05 -14.10115075370003 -12.634993578784012 -10.52233524387933 -15 -10 4
936 1 0.0001038141502665638 -16.4021779499989 -12.965121701841356 -13.103631318740513 -15 -9 4
1445 1 -5.778580612705864e-05 -15.80853502187699 -11.852834412856868 -12.245126128960278 -16 -9 2
1990 1 1.31688553276707e-05 -14.716006496085129 -11.389029221633491 -11.32388564887124 -15 -10 4
1989 1 5.576866663270161e-05 -14.092345060201955 -10.57051311643016 -10.173694357500406 -15 -10 4
929 1 1.934330194237194e-05 -15.364414642383238 -9.617305393328463 -10.22738139850848 -16 -9 2
1920 1 3.226115606880242e-05 -13.815813145955149 -16.736783073082876 -10.199870327204113 -15 -9 4
1443 1 6.202101164091978e-05 -13.047426971692706 -10.03446329072566 -9.393500632872566 -16 -9 2
1454 1 -6.727837927919533e-06 -14.30899811704308 -15.303142262204718 -9.861937038102074 -15 -10 4
1586 1 -3.223820857654186e-05 -16.68889061680676 -9.836177643948092 -10.80926151009776 -16 -8 2
1587 1 -2.044273725142903e-05 -12.787763628593646 -12.981091409374983 -9.915967540538464 -16 -8 2
1991 1 4.388740341623731e-05 -12.953033189113686 -14.628238912663344 -9.37785017811979 -15 -10 4
1584 1 -0.0001507871016462325 -11.558411045867702 -10.912385701005288 -8.993789761879121 -16 -8 2
1068 1 0.0001939480732932597 -11.961990301110243 -12.08940138672857 -9.346751412671367 -16 -8 2
2610 1 0.0001437395924393722 -13.084666293256538 -8.551047817991423 -9.548181044504378 -16 -8 2
1444 1 8.500006989049097e-05 -16.7463622126495 -10.78753912259202 -11.900572567440964 -16 -9 2
2607 1 6.751808184768393e-05 -14.709618832049062 -8.4317969547157 -9.420829397589806 -16 -8 2
1463 1 -0.0004161778047862795 -0.5784580795000717 -16.14644369332547 -8.828398694446019 -15 -10 4
1536 1 -1.443358823020879e-05 -0.4304815710039139 -9.82011295074125 -16.169978592139525 -16 -8 2
1534 1 -0.0001297277024226925 -0.10526834877471596 -10.397069457217455 -13.932457857507856 -16 -8 2
1527 1 -7.332995453902813e-05 -0.32062539868079254 -10.896964445176607 -15.28378147102317 -16 -8 2
3283 1 -0.0001665766083056991 -1.4858079548450795 -8.991565194085549 -1.6843832806228365 -16 -8 2
3284 1 0.0002407628437224446 -1.9508375954500774 -9.634593114742641 -0.342104246452388 -16 -8 2
1460 1 -0.000398132871473722 -1.0756614835752663 -14.977738496907053 -8.067397485758292 -15 -10 4
2433 1 -0.001497547889632835 -0.07453452284441615 -13.923437472984427 -7.884300928573397 -15 -9 4
3608 1 0.0003771242775839068 -0.159765652043322 -8.502498799943526 -1.158258857202272 -16 -9 2
3609 1 -0.0001890881304390593 -3.4232028133042296 -10.401372935297328 1.1403749250987245 -16 -9 2
3110 1 -5.093837607562934e-05 -1.2609064691447065 -12.252302845382436 6.8251960186258165 -15 -9 4
3034 1 0.0001604150207428767 -2.3680332634971846 -11.405911236232273 0.9162909339005197 -16 -9 2
488 1 0.000181082535834539 -2.3549313335465305 -9.183618297253727 7.75269777368482 -15 -8 2
3536 1 4.387281966262632e-05 -3.7821946518359937 -10.311916966106219 2.606069997282167 -16 -9 2
3538 1 9.448881110971086e-06 -3.133457395550095 -9.125771515659231 0.5618378834406101 -16 -9 2
3616 1 -0.0002813456972909772 -5.0655636764915695 -9.214703767056275 7.184340793035621 -15 -9 4
3544 1 0.0001251919302064051 -4.026889722541719 -8.926549348706295 4.534429470890197 -16 -9 2
3100 1 0.0008705326198975571 -1.2442583732804373 -10.868440446960891 0.2292212605517185 -16 -9 2
3173 1 -1.050949432708503e-06 -3.98025924031634 -10.269846334448983 5.037714602532105 -15 -9 2
3037 1 0.001005460784621069 -1.0760782107408504 -12.951399718747545 2.546243834071026 -16 -9 2
3177 1 7.333810137841179e-05 -2.691054765298946 -11.79036475910751 6.727775988346116 -15 -9 2
1265 1 0.0002601044530547714 -4.204229784384732 -10.148699294335463 6.522952905309313 -15 -10 3
3042 1 -7.495699630267767e-05 -2.7645656440439184 -12.103440417244496 5.265687522909291 -16 -9 2
3043 1 -0.0001959081170341895 -1.8015332922233038 -13.93063613659068 3.5768143207913607 -16 -9 2
1842 1 -8.247866817170935e-05 -0.821225954059689 -15.683271994098856 5.303585778205174 -15 -8 2
3539 1 -0.0002011022320911118 -3.149219655040603 -11.487874160993087 3.0049025639298725 -16 -9 2
3112 1 -0.0001015458116586446 -2.1427958213994165 -13.388552210830676 4.805396302257214 -15 -9 4
3552 1 -2.117083534472833e-05 -1.1745410473571585 -13.55945394469863 5.974382239608515 -15 -9 4
3618 1 4.426481265307897e-05 -3.454387779152064 -11.395388296016415 4.360830032470801 -15 -9 4
3039 1 0.000145829820697798 -1.9707698511350569 -12.020150883567688 2.2432321802986563 -16 -9 2
3175 1 5.331128593144639e-05 -2.737741056495577 -10.41914366007182 7.216727590545113 -15 -9 2
3540 1 -7.136835737068387e-05 -4.015452196733909 -9.005398313751106 3.2267988882602294 -16 -9 2
3047 1 5.613210057355683e-05 -1.0661121203536625 -15.240829176940858 3.699857486328407 -15 -9 4
3174 1 -1.889450098514767e-05 -0.29725734569232914 -14.59603900922652 6.1202284386592485 -15 -9 2
3111 1 5.184611383861337e-05 -0.28963904496555204 -13.519328805095137 1.4828684057966668 -15 -9 4
482 1 -2.085297177476658e-05 -0.29284758388720433 -11.328574044366892 7.279682687367104 -15 -8 2
805 1 0.0002750786113588366 -6.040112765906095 -8.851917159172157 7.974612719595397 -15 -10 3
1321 1 1.629599209922172e-05 -16.00160157696223 -16.51061497872859 16.17920591715096 -15 -9 3
1309 1 3.717065331064126e-05 -16.57841664932274 -15.198986729579982 16.722720371445853 -16 -10 2
182 1 6.17595670936999e-05 -1.1454412505534393 -8.482160669739164 14.960332157238886 -16 -10 3
2059 1 6.017418247093731e-06 -1.347680239253768 -9.248941722809555 13.524900466843393 -16 -8 1
1470 1 4.396018613671282e-05 -0.4150247270145217 -8.732752438985187 16.563222454210575 -15 -10 3
991 1 -1.442149286151606e-05 -0.8249414523718602 -10.271796339825126 11.134315915259213 -16 -9 1
490 1 6.542063049845906e-05 -1.3061187378563923 -9.676165511342994 8.76923500616248 -15 -8 2
928 1 1.539317290417952e-05 -0.7593609512759993 -9.999502016528997 12.510620722184266 -16 -9 1
932 1 4.146097516082026e-05 -1.771296084067056 -9.660416168516758 10.067339723233928 -16 -9 1
343 1 0.0001176585120786534 -2.5758863084630548 -8.545638599497734 10.43417513379555 -15 -9 3
1177 1 2.061370390386147e-05 -15.922391268270943 -6.374283222000934 -10.201914124829342 -15 -11 4
2094 1 6.139407459724265e-05 -15.745496318427637 -5.1287392577610325 -9.312886133509295 -15 -9 3
2104 1 0.0001945401841699189 -15.288620208362032 -7.2018061467023795 -9.204484864811395 -16 -8 2
1636 1 0.0001522355970701439 -14.104015810143453 -3.247169272500428 -8.820477638050928 -15 -9 4
2037 1 -7.973622378679504e-05 -15.765051996961503 -1.5194457103057561 -9.72530014652339 -16 -9 3
1635 1 5.043113034159524e-05 -13.250349115851005 -0.7627275831488258 -9.399726958708802 -15 -9 4
3143 1 -0.0001232013334166171 -12.075125338540708 -7.635267028355492 -9.10654040504265 -16 -8 2
1179 1 4.465871616356198e-05 -14.875461395253868 -4.109567482436614 -9.077242379830762 -15 -11 4
2227 1 -1.057903331946886e-05 -14.41481454074593 -1.8001225613754817 -9.381415854701673 -15 -9 4
2212 1 -1.002155867541044e-06 -12.448643291000767 -2.7347552308189407 -8.815160606581642 -14 -10 3
1626 1 5.740730007750688e-05 -16.309652043113786 -0.3226751436481231 -10.317510143409844 -14 -10 3
2114 1 8.059410322389798e-05 -10.79251408223563 -0.8500876363359118 -9.020756588528032 -15 -10 4
2158 1 8.894929580348029e-05 -12.0440701869292 -1.4032629539635162 -8.97432158448743 -15 -9 4
532 1 3.914779461273998e-06 -2.5072084044567493 -0.1232734432049425 -15.177346153494785 -17 -9 2
611 1 0.0001264246885848141 -0.5802063145891924 -0.9863657769723001 -12.149438944067315 -15 -8 3
1132 1 -1.744400324320272e-05 -1.5867397218388108 -0.08622717328618655 -11.419318520608575 -15 -8 3
1064 1 -2.854036229503476e-05 -2.7377248372402923 -0.9659751297445368 -16.24783472976479 -17 -9 2
538 1 -7.38267673077303e-05 -1.046180900228008 -0.9570133862873729 -13.563332359125269 -15 -8 3
2614 1 0.002746631967457308 -9.606889015065791 -3.56261000053348 -6.801607129529851 -16 -8 2
3266 1 0.0002305680286302063 -9.029175518477242 -2.2678465786113806 -7.309102021393 -15 -10 4
2615 1 -0.0167702270009393 -8.431723679787945 -4.136535299579764 -6.207443458665473 -16 -8 2
3215 1 -0.001056335988191298 -11.320357783880047 -5.625734849165427 -7.552408295507873 -15 -10 4
2225 1 0.0004144610083381961 -11.6232818873994 -3.5363228046804145 -8.098893112269126 -15 -9 4
2115 1 0.000141669249307079 -8.733342926355997 -0.19239590882898744 -8.044679143809647 -15 -10 4
3206 1 -0.001217765622781614 -11.109536422763739 -4.311047408224721 -7.356649284519818 -15 -10 4
3207 1 -0.0004779188748967184 -11.764744483802236 -6.819194701092524 -8.039959153756834 -15 -10 4
2747 1 -0.0001909376937590732 -9.729177195080364 -1.2796659401942458 -8.108792889453134 -15 -10 4
2110 1 -0.000132840782244549 -16.680023310162092 -7.217342410724251 -8.350402219657934 -16 -9 3
3602 1 0.0002450385395227285 -0.295545370992065 -7.043234131656491 -1.21478717807243 -16 -9 2
3263 2 0.0218425910177394 -8.189871567320447 -5.223377985563187 -6.070422822595629 -15 -10 4
3596 1 0.0002618476727931224 -1.0319756274677072 -2.120880667665962 -2.6530230004785236 -16 -9 2
3792 1 -0.0001998688337074804 -4.741794250875926 -4.298933279756138 -0.35762452193232536 -15 -9 2
3791 1 8.763195010753899e-05 -1.0136209035501522 -6.919531683567935 -2.7258827236305745 -15 -9 2
2619 1 9.217707437036982e-05 -6.815644937687942 -4.825403406867649 -1.9001614621694594 -16 -8 2
3614 1 0.0001336398266442856 -2.097057909901364 -7.805732056452312 -2.355931690355893 -15 -9 4
3603 1 -0.000123842460284504 -4.8079540967577215 -7.182373072351279 -0.9469015696415828 -16 -9 2
2684 1 -0.0006984638794097497 -7.224156514137241 -4.905416603001996 -3.200311690640324 -15 -10 4
3276 1 -0.001402697536311043 -4.87357476343176 -0.4693530849787224 -2.5708383972541817 -15 -9 2
3273 1 -0.000252129966172486 -6.000509132944612 -4.7064448713408495 -1.0170917326712987 -15 -10 4
3091 1 0.0006700927284620795 -0.6458888230410876 -0.38323010022874926 -4.704854666347079 -15 -10 4
3093 1 -3.083736241161344e-05 -1.4739616648517384 -1.141600555260047 -3.6070990924958917 -15 -10 4
3274 1 0.0003595093437016653 -6.985960173714314 -3.593118866871308 -5.539878806690857 -15 -9 2
2767 1 8.014148576137789e-05 -3.4479403533914375 -0.59327363333279 -4.680673674019419 -15 -11 3
3788 1 -0.0003028190384283085 -3.060006807126388 -2.5499177616669972 -1.3037599506981645 -15 -9 2
2763 1 0.00012471350553072 -4.779431860375553 -0.7045452353586773 -5.153896409899152 -15 -11 3
2618 1 -0.002745285561366967 -6.969809298099128 -4.3685030328046786 -4.310377177648252 -16 -8 2
2713 1 0.0001098263578363963 -0.026887933117997774 -3.23571798709029 -2.3380597223107724 -16 -8 1
2688 1 0.0004572564181415939 -6.922797485640548 -0.7983008848575032 -3.6874655349989305 -15 -10 4
2117 1 -0.0001084377274942344 -7.47315624062235 -0.3332100720576728 -7.38336336018159 -15 -10 4
3214 1 -0.0005307891878273824 -1.8465225544594959 -1.893524286774449 -1.4386953136708465 -15 -10 4
3208 1 0.0002172519059313281 -6.110970105549616 -1.481168412731238 -4.8328868270631515 -15 -10 4
3095 1 -0.0001755419417461337 -2.8091430424169186 -0.6147847101081103 -3.1499473006168914 -15 -10 4
3203 1 0.0006798615437109273 -7.889846485305315 -1.5429497023939724 -6.736326923201676 -15 -10 4
2613 1 -0.000737978467803567 -3.763927510682492 -1.2879314903409178 -2.3789634655269034 -16 -8 2
2748 1 0.0003107451924239391 -6.689695520949679 -2.2667337793829754 -5.988664318045302 -15 -10 4
3230 1 4.449120103413098e-05 -0.7924097095705743 -2.559303810512738 -0.5336876561672653 -16 -8 2
3790 1 6.422781153996721e-05 -0.641498371274546 -5.679637191621368 -2.9851354434531343 -15 -9 2
3793 1 -0.0006183983089929675 -3.615921139605054 -3.22674669912946 -0.3010016189595185 -15 -9 2
2182 1 -2.040980533271619e-05 -0.06695955197022775 -3.6033152909632133 -0.8112632300780012 -15 -11 3
3267 1 0.0001043939331530691 -10.951509740072582 -0.6084273156560148 7.836934484697923 -15 -8 1
3915 1 1.932900884496665e-05 -15.462581083804627 -1.3654918302016539 7.1813103616736464 -16 -8 2
3843 1 1.253283775293212e-05 -16.365611924527833 -0.9952934501286388 8.169388649628598 -15 -8 1
1996 1 0.0001379690090412555 -14.582454473469326 -1.3883796244733948 6.263627918932129 -15 -10 4
3916 1 -0.002265649309573729 -10.621042083462129 -4.961646746421713 8.26104959201603 -16 -8 2
3863 1 -0.001857459894823867 -9.627827816127466 -3.049441966175726 8.088332318713018 -15 -9 2
2818 1 -5.941023015321178e-06 -10.421766640247878 -0.14282365856029844 6.928145064993952 -15 -8 1
810 1 0.002073232568256284 -10.086758837954607 -6.267378907746346 8.271161728608595 -15 -10 3
3459 1 -0.01296898464505031 -8.632459255278166 -6.358481143814722 8.074079847843791 -16 -8 2
199 2 0.01940315154820361 -8.023449946136115 -5.289069540319048 7.452492330554683 -16 -8 2
1211 2 0.02080099908433566 -5.277810003015855 -0.03210492410499788 0.6119040295602539 -15 -10 3
746 1 -0.001426905021585323 -6.969884425215841 -8.10847526026303 8.349375574872559 -15 -10 3
3473 1 0.0003287869201378073 -2.705290794912574 -0.6515873231748348 4.73506808276691 -16 -9 2
3855 1 -5.771925692672764e-05 -5.2510393834906335 -1.8870649361095886 7.122328916214465 -15 -8 1
3416 1 -0.001794702396407263 -6.565027849616774 -2.0607722534225337 6.995088710217467 -16 -9 2
2779 1 0.0002418804053860302 -1.1923830826440929 -0.3985345201606025 6.568363153702964 -16 -8 1
753 1 2.159525566380882e-05 -4.192509509406098 -8.23522082456161 0.806152976811968 -15 -10 3
210 1 0.0002404904993956423 -4.2381428550536615 -5.349874154488739 0.5266438004803466 -15 -9 2
3166 1 -0.0006944284585801569 -4.175215166243186 -5.589796473393657 5.296947223934483 -15 -9 2
154 1 0.0002249361893782269 -3.7145708082630207 -4.135590783305639 2.327070822317129 -15 -9 2
3858 1 0.0002128830554415165 -3.390669291651742 -2.395875419965123 3.410802427343056 -15 -9 2
3936 1 -4.522918107288318e-05 -4.024699547616577 -1.6388362927741131 7.047652981636639 -16 -9 2
3859 1 -0.0006263128296642995 -3.7040243243310296 -5.65086222652031 6.673841101341326 -15 -9 2
877 1 8.075613577967003e-05 -2.107218847819194 -4.871692729029221 8.184027350373348 -15 -9 3
3864 1 -0.0006104406419423919 -3.512081908057377 -3.1040314360812586 1.2010417783997698 -15 -9 2
3163 1 -5.999415217820825e-05 -4.190688957993882 -6.7587836270548625 2.7846023154424038 -15 -9 2
3296 1 0.0002871518248262206 -3.037804588930614 -3.7018247738521883 5.823520673797781 -16 -8 2
3294 1 -1.866825841483413e-05 -2.8256689149120215 -4.517198246583805 7.110266404142031 -16 -8 2
143 1 4.564137516525901e-05 -3.2844331283292205 -2.4017200211216254 5.963902463615547 -15 -8 1
3678 1 -5.440130463208251e-05 -3.817186424641657 -4.356538717387604 4.904444508540765 -15 -9 2
2721 1 0.0001133141893943576 -0.8186997834195308 -1.856753204483645 0.9221525450314639 -16 -8 1
931 1 -1.572115040238652e-05 -3.064768933254065 -7.830464899576383 7.898343559887014 -16 -9 1
3232 1 -0.0003358605146070968 -3.489931192402076 -1.6971757213394856 4.6187752413382235 -16 -8 2
3167 1 -2.203508158514847e-05 -3.6336030175314558 -7.095561681388139 6.72461069680906 -15 -9 2
3165 1 8.87327278659214e-05 -4.181050667567562 -6.6542444779959995 4.306845232340583 -15 -9 2
3861 1 -0.0004493079884744858 -3.8576602773807456 -3.639576872519404 3.7498692469955897 -15 -9 2
3676 1 -2.566346206041986e-05 -4.016849796314551 -5.51446302250513 1.92907163996113 -15 -9 2
813 1 0.0001615122605699828 -3.9586226051880784 -7.982867951304145 2.2961944265549263 -15 -10 3
3170 1 -0.0003710619247812991 -4.276720176177711 -7.680372791384484 5.336667370396503 -15 -9 2
3229 1 -0.001412165356795104 -3.0395522310355387 -1.9430018852355577 2.0186217233581343 -16 -8 2
2782 1 -0.0007304054426422353 -1.9105235529682119 -1.1671533698317715 1.609953800322044 -16 -8 1
3939 1 0.0001734727262254409 -2.374942084065265 -0.41364774816145183 6.125139115810416 -16 -9 2
3937 1 -1.470683067267449e-05 -3.9260282417171797 -0.04568732817915653 6.850864924234387 -16 -9 2
3612 1 0.0002647760435047705 -4.191376544883618 -6.931957133657098 0.043412262594085586 -16 -9 2
3513 1 6.116559244098187e-05 -14.266222396078447 -2.22352012243723 10.677720943888954 -15 -8 2
4057 1 -0.0001042103300670089 -15.987048721259157 -2.226258315132778 12.328248990071044 -16 -9 2
203 1 0.0001600065452099161 -12.760278654931739 -2.9226807602590563 10.428898443640023 -15 -9 2
3847 1 5.195846872977587e-05 -12.042060073379309 -2.524986051248068 11.567057968980565 -15 -8 1
3200 1 6.846963961480712e-05 -11.295839044189306 -2.025918408889882 12.453830250897179 -17 -9 1
3919 1 4.041645827026889e-05 -14.346916421454294 -1.294269959462182 9.647001155504439 -16 -8 2
982 1 2.09669430845244e-05 -9.750585019481328 -1.7595375473485326 12.480297115541234 -16 -8 2
3394 1 0.000100560331046471 -10.896620106254403 -5.883477267731241 10.668213431879952 -16 -8 2
1260 1 3.942253652989419e-05 -10.238866714191621 -4.2087576462858864 12.227705193461782 -15 -10 3
3002 1 -4.658653451310689e-06 -15.40546158921299 -0.5550302925089001 9.232231967890836 -17 -9 2
4050 1 2.811679744485485e-05 -14.937204529167476 -2.376749331064434 11.871210448251452 -15 -8 2
3458 1 -5.872939444817593e-06 -12.053098587928174 -2.716396153816716 9.142087145060941 -16 -8 2
811 1 -9.424118616542521e-05 -8.82272225543075 -3.494590235756398 12.315411427270101 -15 -10 3
1994 1 0.0006823436384923737 -10.917609550292624 -3.605698510679286 8.543469946591884 -15 -10 4
1506 1 4.611581214478133e-05 -8.392127672495846 -2.2465890034289533 12.725699168383287 -16 -8 2
808 1 0.0001538363145409949 -11.167932304759459 -4.949414716847569 11.621089940070375 -15 -10 3
3921 1 0.0001757970640871298 -10.47571513122905 -6.862923686115108 9.629787881867529 -16 -8 2
3259 1 -3.124576153333211e-05 -16.099174673872668 -0.03385503014872151 10.418237368948969 -17 -9 1
3848 1 -1.172485392914036e-06 -11.647298219076283 -0.6108286423902546 12.524249023333228 -15 -8 1
3647 1 4.877348028166362e-05 -13.088336373755691 -0.5038677700536508 9.342361334626508 -17 -9 1
976 1 7.617299907619265e-05 -9.428256353657407 -0.45350077046520837 12.261027526656266 -16 -8 2
3735 1 -0.001644540260824057 -8.525177838190416 -2.578315216782447 8.402590579242327 -16 -8 2
1992 1 -0.0002031061759449268 -9.189579322348848 -7.557921780824312 10.11129009626001 -15 -10 4
806 1 -0.0001471405918686761 -8.497116990962585 -7.316597278547263 11.277658441219655 -15 -10 3
3644 1 0.0001041535228788453 -11.803209521558548 -1.2079938114229412 8.727436415961492 -17 -9 1
3396 1 -0.0002368335365104876 -7.580710984098033 -4.2786746319961075 12.607794239747511 -16 -8 2
406 1 -1.272964291406786e-06 -0.44173846797272154 -7.4800014603744405 14.6491082673944 -16 -9 1
608 1 4.605047071842144e-05 -0.3303330686645405 -0.8318890429738797 16.69559545951645 -15 -8 2
1511 1 6.383168485567942e-05 -7.453052355968676 -0.18267970064527694 13.040215272141252 -17 -9 1
495 1 4.240157462444272e-05 -1.7205775406363444 -1.2435238366064834 16.437774332463533 -15 -8 2
3236 1 0.0001443869335681532 -1.161305662122094 -3.6880765371263617 8.387052976778051 -15 -9 2
1516 1 0.000116402763899813 -3.960996263414994 -0.6564024890857014 16.336987728196824 -17 -9 1
557 1 6.911679300923568e-05 -0.26912445987040917 -0.7643001316714405 14.290966449919646 -15 -8 2
1998 1 0.002434182705566704 -8.245061735699029 -7.425338411716474 9.087172170259272 -15 -10 4
3745 1 5.304930526002852e-05 -1.039361677506735 -0.9969315281965211 11.822746905638468 -15 -9 2
108 1 0.0001975110607647899 -7.233568212714632 -0.6147469995597169 8.956058603266733 -16 -10 3
339 1 -0.0001036698723862351 -3.4013487301632632 -5.238960563049359 11.944798798270298 -15 -9 3
465 1 4.930376445093365e-05 -6.166878418919761 -2.265858849903326 13.895614642583425 -16 -9 1
3922 1 4.047005538895983e-05 -3.175078455981918 -6.487700574234625 11.397717327750062 -16 -8 2
115 1 5.579841298786192e-06 -5.539224057920761 -3.6343638595054033 13.934015252239815 -16 -10 3
109 1 4.36941661097201e-05 -2.2943324154247415 -1.9885952894276901 9.825899652195263 -16 -10 3
981 1 3.646996752798559e-05 -6.528760660253007 -4.727470597254889 13.41732890177143 -16 -8 2
3395 1 -1.874715945310041e-05 -4.032304680529251 -5.275757433191261 13.125355145952309 -16 -8 2
111 1 -0.0001597199253099597 -2.113124841310455 -0.9895746131854272 10.75373194173002 -16 -10 3
340 1 -0.0001746516497485792 -2.7237083706071172 -5.308211702242113 9.64347817974931 -15 -9 3
3684 1 7.706317643351585e-05 -1.641751501048958 -2.0230414650700075 12.845976339819696 -15 -9 2
407 1 6.23064500532601e-05 -7.119844773765339 -1.5519787465413162 13.308237901051509 -16 -9 1
405 1 8.846219456802584e-05 -4.866887809024056 -6.391913986287137 13.501631694731259 -16 -9 1
112 1 -8.189352717923037e-06 -4.404011633475355 -4.096385999466961 13.683784125815091 -16 -10 3
3741 1 -0.0001841125390064785 -3.1473485386277797 -6.530344829833381 10.004052386525373 -15 -9 2
3460 1 4.639909347341903e-05 -2.650462102525096 -7.874591198523466 11.86554823537042 -16 -8 2
1513 1 5.987292465099714e-05 -5.514071521288284 -1.3571216039066227 14.916824362165325 -17 -9 1
338 1 9.647976821955395e-05 -2.6212780525082677 -3.8827668901870713 11.727201993712919 -15 -9 3
3737 1 2.38808543949233e-05 -1.5567316176777104 -3.226959807286167 9.754363417594924 -15 -9 2
874 1 -5.515163908563839e-05 -3.163506836118485 -7.758359054725673 9.393544017844825 -15 -9 3
3818 1 3.528030764280918e-05 -1.2451578894770197 -1.8091017300495345 14.146512901853692 -16 -10 3
3297 1 -1.63069634841282e-05 -2.4638825043108032 -4.183675438674245 10.43471621378868 -16 -8 2
181 1 8.066426817658623e-06 -3.1506529531169187 -2.5780199547655784 15.103708830959679 -16 -10 3
492 1 -0.0001089347312157631 -6.062173628540503 -6.261195909542175 13.26616868769324 -15 -8 2
875 1 2.234275058920522e-05 -7.719444193033278 -7.238187835638697 12.40890485851754 -15 -9 3
499 1 2.143581384152216e-05 -1.7483896280906701 -1.9949477986062611 15.25764150850922 -15 -8 2
268 1 0.0002185949956846345 -7.382161039475774 -7.280922280140944 13.694740735737552 -16 -8 2
110 1 8.352653305186523e-05 -3.3361547405138072 -3.131567742821606 13.821229200313365 -16 -10 3
1514 1 1.061930386411433e-05 -4.184369386898651 -1.6609096984551415 15.476698664090113 -17 -9 1
106 1 4.149367594152506e-05 -2.6592780067578268 -2.9082631890187387 12.61055810702036 -16 -10 3
1588 1 3.512487396313546e-05 -2.3332712492765504 -8.324831490757482 13.119196600632895 -16 -8 1
1059 1 -1.977460453468638e-05 -6.080463228554558 -0.5199910248990687 15.749248317860678 -17 -9 1
1508 1 2.473125780055874e-06 -7.429488788951757 -1.7206625035437266 8.436305901831187 -17 -9 1
1566 1 4.82194126502633e-07 -16.09061076837647 1.3825087646982228 -13.490499930544903 -15 -10 2
1043 1 2.431241101133463e-05 -14.303274214130196 2.8145383977010265 -14.58150387147993 -15 -10 2
1565 1 9.620284468964124e-06 -15.041123336149976 2.0135070774364374 -13.548142388247447 -15 -10 2
1044 1 2.197218084924735e-05 -12.361782216036016 3.3671572846577584 -15.520983155157028 -15 -10 2
1627 1 -3.733213036153163e-05 -16.532522681702613 0.6340062954058419 -12.191945412338118 -15 -10 2
2034 1 4.564281739835932e-05 -14.106324805328192 1.8371620365216652 -12.229473476541148 -15 -10 2
1048 1 4.390158229632905e-06 -12.984236215659774 3.200019488151601 -14.211516343685608 -15 -10 2
1502 1 1.567398992767532e-05 -12.969884840645348 2.6167262089506176 -11.994285610262606 -16 -9 3
2040 1 4.257689497171036e-05 -12.280473799072 3.6331716576577056 -12.992096054516683 -16 -9 3
1501 1 2.940069287547808e-06 -11.870849271577397 2.1720682032203635 -11.115253447887557 -16 -9 3
2036 1 -4.694661653078039e-05 -14.113195685125563 0.5552132609759404 -11.415455064830379 -16 -9 3
2175 1 -4.345209925724763e-05 -12.006972099810051 0.9986302039400863 -10.320232126897281 -16 -8 3
521 1 2.627816892392804e-05 -13.105685363415295 2.756427102479335 -16.48491167937516 -15 -10 2
2169 1 3.10201669606984e-05 -10.909362929283343 3.1105238218621993 -12.935812959016873 -16 -8 3
2167 1 -1.889743778116237e-05 -10.635580820427547 2.515074068262385 -11.50275350302684 -16 -8 3
2173 1 -1.439037040068189e-05 -9.557928528420044 1.055918003258552 -9.821051821565579 -16 -8 3
1114 1 5.685150903017577e-06 -9.85144969401681 3.4579428992843573 -15.075535159399308 -17 -9 2
1641 1 2.339514661844899e-05 -9.557877198451065 3.073858591105031 -13.648790340070185 -17 -9 2
2113 1 1.282604309092716e-05 -9.309817451128321 1.9442173362252115 -10.922297692640305 -15 -10 4
1046 1 1.527048318322732e-05 -14.183908491834938 2.505291330161967 -15.75390052199695 -15 -10 2
1041 1 1.706433359207477e-05 -11.076261454403591 3.063410943483382 -15.830904436169833 -15 -10 2
1498 1 5.494124366643705e-06 -13.045705208244867 0.1485732290375148 -10.5001537437011 -16 -9 3
1643 1 -7.757138959544121e-06 -8.863719101105126 3.5285160302714584 -16.21690497889043 -17 -9 2
592 1 2.803764988775631e-05 -15.111747682113288 1.5966862327432743 -16.662571984491798 -15 -9 3
1630 1 -1.089389086404019e-05 -15.472143769236853 0.582481046378603 -11.249454772352603 -15 -10 2
2171 1 6.680003577715782e-05 -10.897897862516583 0.3456892660233831 -9.742500651221075 -16 -8 3
1567 1 -5.565672375056757e-05 -16.636297149052485 1.00090026644897 -14.691022377348567 -15 -10 2
2170 1 7.271769528732763e-05 -8.781286326780547 0.9413372705259748 -8.750264234352628 -16 -8 3
1047 1 2.516258755985712e-05 -16.006243804522427 0.6646069160143729 -15.94741826089304 -15 -10 2
1657 1 -0.0002335454064501877 -4.612449950631245 3.985124503649082 -8.865831710851408 -15 -11 4
2164 1 -2.731788088968304e-05 -7.12921689763261 2.99696768948476 -14.35043497841215 -16 -8 3
2290 1 6.937860023849274e-06 -4.8938625043848445 4.885005645994379 -9.952018690441374 -15 -11 3
1592 1 -7.219686405020298e-05 -3.079040103681088 1.1525382717858381 -9.779992951318208 -16 -8 2
1134 1 0.0001928390353621856 -1.586123982980212 0.46579802637467854 -10.008023688067215 -15 -8 3
2853 1 0.0001231676623045311 -4.519275175133887 6.9012767885613435 -8.494126213615136 -15 -10 4
2838 1 -3.355402824740603e-05 -4.618901743713714 2.677699666074449 -9.367435955083506 -15 -11 3
1723 1 4.046635670912346e-06 -7.1873718734379 7.425315883350815 -15.896673586130321 -15 -10 4
2850 1 5.217429015129393e-05 -6.920432296204794 6.779923690726076 -14.674608073389962 -16 -9 2
1129 1 3.976172865420569e-05 -6.292268018001591 1.9820540238864812 -13.921209265033589 -15 -11 4
605 1 3.863677762173945e-05 -2.596469444939059 1.2759371601022615 -13.38193973779818 -15 -11 4
1792 1 0.0002508714070170864 -4.661659119160295 7.84674002740893 -13.364103014071722 -15 -10 4
1121 1 3.129135289867135e-05 -6.735396040737 1.9416550535987223 -16.34935143144675 -15 -11 4
2768 1 3.001664900308121e-05 -4.623155179616139 6.380250399883921 -9.834192913670567 -15 -11 3
1789 1 -4.972914468569234e-06 -6.702606969343013 4.538777785851397 -11.740211603080251 -15 -10 4
1205 1 4.181111479342053e-06 -2.551360689480013 0.837612984192262 -12.073538595849534 -15 -11 4
604 1 -1.347687183306245e-05 -4.024090302589564 1.2933104224260017 -13.876796223091365 -15 -11 4
1067 1 -2.706816129467715e-05 -5.848671075127651 1.4863482702406616 -15.257873005286207 -15 -11 4
998 1 0.0001110052320729416 -4.831298525717438 0.8540161744153666 -15.936439567841477 -17 -9 2
2848 1 -2.623966906182065e-05 -5.628227508504357 4.141563986970847 -10.924987403110885 -15 -10 4
2296 1 6.222920666930712e-05 -4.699309036896912 7.105354662653254 -11.066805159226138 -15 -10 4
602 1 8.590242765747769e-06 -5.080304114143067 2.0797364084561694 -13.15849181867806 -15 -11 4
1656 1 3.777740984322459e-06 -7.090491284902721 2.314720060990346 -10.071581267251936 -15 -11 4
3025 1 5.720759895397332e-06 -7.672193499333989 3.633235145113446 -12.16592557691931 -17 -10 2
2289 1 2.01423940542067e-05 -8.13577145770957 3.151285747045847 -13.408702934199455 -15 -9 4
1119 1 -1.11831497885545e-05 -7.620088307089135 2.8848125549817025 -15.764959199853196 -15 -11 4
1653 1 2.971663471768721e-05 -7.346473106784731 1.5750700975798633 -8.849730552306935 -15 -11 4
997 1 1.698850555072184e-06 -3.918580220768472 0.6162014574630785 -15.027695451094289 -17 -9 2
1589 1 4.504180772581939e-05 -4.970025326801223 1.9803167389083562 -11.741647419347595 -16 -8 2
1718 1 -1.050777862436939e-05 -5.594624008265394 2.6577846311680715 -10.491471497992828 -15 -11 4
1652 1 3.145008541149269e-05 -6.547040839513384 5.979015992607784 -13.642671143226238 -15 -11 4
1591 1 -8.582393389668791e-05 -3.877495634650506 1.2125766070260289 -11.044235953483293 -16 -8 2
1793 1 0.0001536756306485254 -4.819382298398692 6.578959825895006 -12.48612137028465 -15 -10 4
1128 1 1.60789747850193e-06 -8.109838451994756 2.642132226229516 -11.158970756956757 -15 -11 4
1790 1 -3.32017664489842e-05 -5.829561359180874 5.326588816753733 -12.722027270104807 -15 -10 4
1136 1 -0.0001915496996417222 -3.6604203649374725 0.9355497460438166 -8.474514474952965 -15 -11 4
1139 1 0.0001638295456192693 -0.6172225818636341 0.4097475580257106 -9.031726361195519 -15 -8 3
531 1 1.443322935378716e-05 -1.8144446905283265 0.15208388346477408 -14.053515736045298 -15 -8 3