LAMMPS data file via write_data, version 2 Aug 2023, timestep = 640000, units = real

3746 atoms
3 atom types

-16.76558630273882 16.76558630273882 xlo xhi
-16.76558630273882 16.76558630273882 ylo yhi
-16.76558630273882 16.76558630273882 zlo zhi

Masses

1 12
2 1.008
3 15.999

Atoms # charge

300 1 -0.002293898834301953 -15.651929873052168 -15.43925362479416 -13.369311573610839 -14 -7 4
303 1 -0.05093087213354503 -13.908305224182529 -15.070970455045796 -12.002655979604919 -14 -7 4
301 1 -0.02223590192763799 -14.611027023935787 -14.594191426591216 -13.16958394594685 -14 -7 4
302 2 0.06510940131929932 -14.222003719612553 -13.80221386686635 -13.954307518693922 -14 -7 4
305 1 -0.02180912621582226 -12.424258681803751 -14.74589218972268 -11.68360762126223 -14 -7 4
3962 2 0.03778800982177005 -10.148250573983942 -14.21539564976307 -15.557146533986248 -13 -7 4
370 2 0.03175166205304072 -12.040300994529291 -14.10592361078637 -12.611919420615383 -14 -7 4
307 1 -0.06389731703771055 -11.715766505023131 -16.216484433802744 -11.487636925586482 -14 -7 4
367 1 -0.01776268795332846 -12.999059213766795 -11.645552093463953 -11.261816371298579 -13 -7 4
365 3 -0.6033004991293318 -13.846649279268375 -11.610515193779532 -14.080997350492567 -13 -7 4
3966 1 -0.02693406720674867 -9.440663217534938 -14.60789784502892 -16.300134723452366 -13 -7 4
368 2 0.2451734832738017 -13.935939736135438 -12.201474767248179 -13.27104683450543 -13 -7 4
369 1 -0.0531943528075353 -12.420697552502016 -10.538758142424271 -12.22832642714682 -13 -7 4
898 2 0.0121932416974452 -12.580681012168284 -14.199230913621422 -10.68977420488302 -14 -7 4
366 1 0.2368172405944762 -13.112431833916155 -10.4353724435104 -13.435758116461205 -13 -7 4
830 1 0.2362896681391342 -10.416979143915894 -16.065017722002555 -10.962450920846575 -14 -7 4
832 3 -0.6583451125541551 -9.720476845059043 -14.737125527371266 -10.746874338232043 -14 -7 4
364 2 -0.001825494763658161 -14.11990176127843 -11.801112779036881 -11.679038159842491 -13 -7 4
371 2 0.02087632087067355 -12.14254901480725 -12.317349454690747 -11.559171026781678 -13 -7 4
4032 2 0.06990215016751274 -12.531185342558752 -10.693565214619737 -15.812893767775384 -13 -7 4
4029 1 0.0006020689299787302 -15.42387186962991 -10.008147498806197 -15.941355368852083 -14 -7 4
432 2 0.06267379175771771 -11.078228384134098 -9.701198127402245 -10.772473899587823 -13 -7 4
429 1 -0.01056448506348014 -11.549110806448748 -9.594293154247675 -11.771322872818622 -13 -7 4
4030 2 0.08817809691535503 -15.617953445125469 -10.933534178836501 -15.30594926198203 -14 -7 4
425 1 -0.0322266099011294 -12.612460555534437 -9.419904158537223 -14.26951638532248 -13 -7 4
4086 1 -0.03544114527941902 -12.729396271771984 -9.591806137210513 -15.873507437819296 -13 -7 4
4084 1 0.02144726785373478 -14.291328189293024 -9.185028340561702 -16.092385594846203 -14 -7 4
956 1 -0.0303336498376422 -13.191788070453999 -9.086893256583219 -8.554066738207938 -13 -7 4
4087 2 0.07648717008335508 -11.87807988535183 -9.038404471302384 -16.312711787566517 -13 -7 4
299 2 0.06102810637732102 -15.851519820351156 -15.345964506468244 -15.58511545040326 -14 -7 4
834 2 0.2981622203217241 -10.464697545885636 -14.270178033079208 -10.699094742729752 -14 -7 4
952 3 -0.6141521072105663 -14.912934579639886 -9.528352506608302 -10.400279237006245 -13 -7 4
423 2 0.245069006534403 -14.88045857482017 -10.46560654232998 -10.758491027037312 -13 -7 4
822 1 0.2164654574064852 -14.57071187147889 -15.802495087168737 -10.976128562638502 -14 -7 4
894 1 -0.0603522712387405 -12.825361496701273 -11.06437577396785 -9.817702049591375 -13 -7 4
298 1 -0.02290608912782377 -16.097332865445107 -16.559585423071418 -12.547995192219009 -14 -7 4
297 1 -0.004559112107972513 -16.510085838449655 -15.195692170503365 -14.69553847783969 -14 -7 4
4035 2 0.01774756242644494 -10.29720221268537 -10.422972799610834 -16.53024990750187 -14 -7 4
824 3 -0.637065020205867 -13.950112425320205 -15.969307311752232 -9.49948025149279 -14 -7 4
820 1 -0.02757716503941322 -15.763527294232844 -16.48446457079405 -11.24178607523345 -14 -7 4
3961 2 0.05322083543109123 -11.559485300338972 -16.72093310727577 -16.549047360713743 -13 -7 4
955 1 0.2032811426455328 -13.716251887326104 -9.969233155399404 -9.534861729277859 -13 -7 4
436 2 0.04255024256322809 -8.678390017350774 -8.70604963525996 -13.341466192889687 -14 -7 4
889 2 0.01665686687835921 -15.365712555523318 -12.156859715014825 -9.89584588803788 -14 -7 4
435 2 0.02466460825726637 -9.067372005219694 -11.311664595875179 -12.94734878134107 -14 -7 4
887 1 -0.01510292672700845 -16.243176425637554 -12.749321061904391 -9.590462094894304 -14 -7 4
4028 1 -0.03070765688875211 -16.667295995879133 -9.604813076464936 -16.494036283108755 -14 -7 4
963 3 -0.69301657144522 -9.051895846184847 -9.765346789236157 -9.098098193024743 -15 -7 3
430 1 0.002593615576789563 -11.175890757058012 -8.49546518608777 -12.578927065332348 -13 -7 4
897 1 0.01017801838061873 -11.680861726431244 -11.404312946925128 -9.047975743946608 -13 -7 4
961 2 0.3362551030693207 -9.268219577337495 -9.107632320778432 -8.543646134831274 -15 -7 3
825 2 0.2851003285102857 -13.046120559862086 -15.798928388013538 -9.551369800188835 -14 -7 4
3969 1 0.002133011113113811 -8.52323745542968 -15.276857144864291 -15.14862664965199 -13 -7 4
899 2 0.03891051099240266 -11.009234529656604 -12.201809175178377 -9.408299706341754 -13 -7 4
4089 2 0.2955602525277007 -9.689617079733901 -9.042871935871595 -15.665666360604822 -14 -7 4
198 2 0.0429185875496097 -3.205630039310814 -16.752967218234062 -10.773863525030034 -15 -7 4
843 1 -0.06812871159671591 -2.062302080667293 -11.453421539841642 -9.30098982715768 -15 -7 4
903 1 -0.06530784291377033 -7.129954447912516 -11.441456306431993 -8.697384454424062 -15 -7 3
318 2 0.2978233143136542 -3.0593420170110797 -14.197892140679976 -10.385057461589588 -15 -7 4
388 3 -0.6891660088568839 -1.7675884096878858 -8.719731535433223 -11.174287640552734 -15 -7 4
837 2 0.06104166164892784 -7.871082014904022 -16.588548444511446 -10.714922897851817 -14 -7 4
259 1 -0.02462947499375081 -0.49508189964885335 -16.15197677666093 -14.030753510649756 -15 -7 4
254 2 0.06483542979133118 -1.9833679275008194 -16.20948578622117 -9.676912196709221 -15 -7 4
442 1 0.02762132180838595 -5.520565407125816 -8.775293368048388 -10.37099263556976 -15 -7 4
399 2 0.05446802649966569 -0.382541869872461 -10.538040780447055 -13.052511862395875 -15 -8 4
841 2 0.04731356812072002 -1.7671292697449508 -11.229511243138129 -10.298410011119529 -15 -7 4
444 1 -0.04581877991137497 -5.524783801946073 -9.954193863012588 -13.645033358109345 -14 -7 4
310 1 0.02520960846909351 -5.889781442145676 -15.560822663840904 -14.85809511903958 -13 -7 4
4042 2 0.2841807865001161 -3.972363988953658 -11.279317098116486 -14.644172552517187 -14 -7 4
319 2 0.0342300440301439 -3.2924965187178423 -9.902723911681202 -13.119436063037968 -14 -7 4
377 1 -0.0009359406654442376 -6.904141585231679 -11.664178509394175 -12.758943938359153 -14 -7 4
379 1 -0.02885676623907366 -5.663553139794418 -11.277553836819726 -13.241643849513867 -14 -7 4
439 2 0.04653221880790989 -6.3227952909252165 -9.45919755166926 -10.29250238071965 -15 -7 4
3910 2 0.0919077115033067 -1.3474610886114782 -14.031488998867905 -14.464408071570839 -15 -7 4
445 2 0.03684057002800141 -3.921832326385136 -10.228155751316363 -11.041550312422155 -15 -7 4
386 2 0.305390222622826 -1.6811065813086925 -9.617852887470951 -11.109907040734516 -15 -7 4
381 2 0.03444974793660837 -4.780349053912178 -11.762358941602173 -12.847766334692869 -14 -7 4
253 3 -0.6011504181513224 -2.6806209435097883 -15.28222718915031 -13.094911248930682 -15 -7 4
4043 1 0.2321663751399034 -3.2875884080448348 -9.969099706087476 -16.010890687778883 -14 -7 4
4041 3 -0.5923032940778542 -3.473930521280344 -11.431467311279498 -15.427004916195372 -14 -7 4
257 1 0.2275491024887857 -1.420482506987964 -16.146837801799155 -12.935599669604922 -15 -7 4
317 2 0.06890162910809422 -3.8299144907979636 -15.733816715240321 -15.24249987548487 -13 -7 4
3912 2 0.04017460102470015 -1.5798455471676012 -15.539299521833275 -15.563076385214725 -15 -7 4
968 2 0.04752863581125995 -6.572757430194918 -10.999896501770797 -9.566996150905478 -15 -7 3
252 2 0.2950229966588397 -3.0812131381626 -15.764435929042344 -12.412925749707263 -15 -7 4
373 1 0.01348590035994814 -8.094762962234732 -14.480677717430439 -13.897871732216366 -13 -7 4
4098 1 0.002040915360344942 -4.06934594943085 -9.266938269444509 -13.606684138570827 -14 -7 4
4099 1 -0.02596828922260763 -3.58749814603676 -8.888053190804953 -15.075088355075895 -14 -7 4
314 1 -0.04728011603998812 -4.755073020147087 -16.255017264365005 -15.621860406995904 -13 -7 4
446 1 -0.1112144431572494 -4.195324857589956 -9.197456298205099 -10.762371831582744 -15 -7 4
437 1 -0.006658590138079335 -8.042453462426472 -10.851637875661867 -13.073279655327175 -14 -7 4
311 1 -0.02214507337703926 -5.716190808847202 -14.600955973843382 -13.820444494648715 -13 -7 4
375 1 0.02004338916836497 -6.881932019010711 -14.14019836035236 -13.188085856658555 -13 -7 4
440 1 0.2420377289599801 -6.633962328805991 -9.059010855298403 -13.69217446005846 -14 -7 4
374 2 0.06353606636380532 -7.6313222149626965 -13.102789977548476 -11.345635344912626 -13 -7 4
378 2 0.03661592079229885 -5.834795492928694 -13.209881544389983 -11.320966074143744 -13 -7 4
3973 1 0.0002792000922544127 -7.238830082893718 -15.896404218140086 -15.42512137012506 -13 -7 4
438 1 -0.07847006123603434 -7.912747702127393 -9.453867654871509 -13.289703630644407 -14 -7 4
3913 1 0.002589253405835705 -0.8922161857740839 -15.001082595840352 -14.93017521130637 -15 -7 4
376 1 -0.04361168972920669 -6.785150919416471 -13.129493917877586 -11.969325109684785 -13 -7 4
840 1 0.2333278968795144 -2.621120817614333 -12.706485762986262 -9.41649654837495 -15 -7 4
910 3 -0.5864204708086357 -2.5359587262613767 -13.564972265064755 -10.716356741425184 -15 -7 4
380 2 0.08795657018263785 -4.720739834227964 -14.19748280826917 -13.481497487089666 -13 -7 4
383 2 0.0465078974381834 -4.150523690987183 -8.511417559146825 -12.757864146193612 -14 -7 4
908 2 0.02256911671175516 -5.684249691697899 -13.089946561833802 -8.464636600629452 -15 -7 3
1345 1 0.0005071817568757277 -16.18813184890913 -15.147879906765409 -2.964197506860656 -14 -7 4
1869 2 0.02459245956868916 -15.535622802967263 -14.783318522894351 -2.123676263542716 -14 -7 4
1354 3 -0.6551129750584035 -12.024018987240627 -15.212424475978477 -5.169608795159116 -14 -7 4
1352 2 0.3293979181844355 -11.322078011700846 -14.930134490622718 -5.610534564525431 -14 -7 4
1410 2 0.3507172932985591 -13.049394259373093 -13.201374405412297 -5.641015196945239 -13 -9 5
1409 3 -0.6380819280318741 -12.974603604281766 -12.661890393186324 -4.979115896421997 -13 -9 5
891 1 -0.06218126353285179 -15.300871562611885 -12.244211808062161 -6.068453190669837 -13 -9 5
1408 1 0.2379367699827449 -14.358618210306272 -12.000432927431724 -5.021203657157352 -13 -9 5
828 2 0.02974494577003718 -10.858266683022553 -15.860599745396351 -7.720659820922166 -14 -7 4
1415 1 0.2934646259980306 -10.59875987860539 -13.80367439527258 -2.112837500276142 -15 -7 3
1947 1 -0.05739613328220136 -11.59913356135499 -14.647477767389722 -1.6076514412908303 -15 -7 3
1411 2 0.04874126081117942 -14.081640783381157 -11.88970552942451 -1.8293680115667033 -13 -9 5
1472 1 -0.03153179918596673 -14.89164644361521 -11.274223263453505 -3.9987673369487 -13 -9 5
1413 1 -0.03184041891437452 -10.594232241651001 -12.448940235409687 -1.6777424010042148 -15 -7 3
1877 2 0.05182282145311315 -11.58654165586462 -15.72845930263052 -1.8459827125080934 -15 -7 3
896 1 0.04217793907456223 -11.334058873341165 -10.597976766172954 -7.951502930062503 -13 -7 4
1945 1 -0.003815562347774408 -12.657744040107476 -14.122096542124535 -0.796464627782283 -15 -7 3
1412 2 0.04971607113017291 -10.680088002430502 -11.045652421674621 -5.7447799380596285 -15 -7 3
900 1 -0.01350120183019916 -10.270682172515729 -10.527221861130696 -6.7790244653426655 -15 -7 3
1470 1 -0.007134739025476042 -16.193043456755625 -10.729580502574912 -4.129575085475592 -13 -9 5
1414 2 0.05670404717501114 -9.71807565379379 -11.811734728219301 -2.019497405574547 -15 -7 3
892 2 0.04941531209712888 -14.574632037730334 -14.296883688955097 -6.842908551241313 -13 -9 5
1942 1 0.008016444129405564 -12.681476811360726 -12.736329396291648 -0.43045753159223754 -15 -7 3
1946 1 0.007231812546158069 -11.622791741014288 -11.841922341529086 -0.9059446832511305 -15 -7 3
1475 1 0.01203364877479111 -14.120444124272254 -11.038807554810752 -2.5851060844484586 -13 -9 5
1471 1 0.2698899324678439 -15.954418748646082 -9.878384604715576 -1.1049127269013768 -13 -9 5
1417 3 -0.6162086993872077 -9.356493902210847 -14.301041683996262 -2.8765224578293678 -15 -7 3
1416 2 0.2886664953874697 -9.455854957108835 -15.225911768359897 -3.083666945199238 -15 -7 3
890 1 -0.02636735422503425 -14.882621646416222 -13.216301879897504 -7.236444606651502 -13 -9 5
893 2 0.02527793726560021 -14.038332424456522 -12.749025795375916 -7.722111372496738 -13 -9 5
1476 2 0.02365341922383771 -13.219130076722514 -8.57945167293238 -2.7680702821331087 -13 -9 5
1297 2 0.033564561540603 -10.253601527648614 -16.76055107313728 -0.5493272426673614 -15 -7 3
959 1 -0.01548250991535104 -12.218232417449117 -9.42791504505216 -7.617918907325725 -13 -7 4
1478 2 0.0004362248079605186 -10.14591280470132 -9.456635012203094 -6.595724381464157 -15 -7 3
1486 1 -0.001963466121986553 -9.92862703702613 -9.112728629263142 -2.2195005888951123 -13 -9 5
888 1 -0.007600293426719199 -16.58435234961305 -11.749047613590736 -6.174287707196877 -13 -9 5
901 1 -0.04608243848918239 -9.057424430857068 -11.370510423563328 -7.2235242005399325 -15 -7 3
1943 2 0.02963014954174869 -13.298105009391238 -14.78259833653105 -0.295891466273485 -15 -7 3
1347 1 0.02166352661808905 -15.601664850618555 -15.941256245781814 -3.9189344394780763 -14 -7 4
1474 1 0.007188114882978571 -14.094288609524765 -8.533004161913691 -2.1504850581911117 -13 -9 5
1477 2 0.0400896533342729 -13.105380587090048 -10.740781224954636 -2.747264260079161 -13 -9 5
1349 1 -0.009807173604436829 -14.230018744803301 -16.549174284528856 -3.4397708753867624 -14 -7 4
1473 1 -0.03526548813363023 -14.77949505043587 -9.71692762680562 -1.9200195515839242 -13 -9 5
1418 2 0.04932406568844835 -9.051908266647791 -13.029632394209257 -5.7261136022863 -15 -7 3
1420 1 -0.007516699677148801 -8.634586111764065 -12.489705229165905 -6.573383112160158 -15 -7 3
1469 2 0.03689239992229966 -16.557073872843024 -10.09547003098488 -3.299575984055327 -13 -9 5
1419 2 0.03505077677909117 -9.026885732166779 -14.940359557303482 -7.24138267635753 -15 -7 3
1351 2 0.06816810479904199 -13.672410236141328 -15.652772934146968 -3.14821075549627 -14 -7 4
1487 2 0.02142522309154383 -10.591967360963187 -9.79316239003849 -2.8540145303714755 -13 -9 5
2018 1 -0.09516765617650791 -9.4799201630766 -9.293741625920681 -0.8640916489221987 -13 -9 5
1941 2 0.03254981526694478 -11.587884951566895 -10.845562139555678 -0.5309013214223446 -15 -7 3
1865 2 0.04149688137964522 -15.04541990635455 -16.19611463210833 -0.576018738420377 -13 -9 5
960 2 0.03998494322403676 -11.910974890662391 -8.729255870667174 -6.93923738566246 -13 -7 4
1358 1 -0.005741511208597963 -8.540324007197961 -15.490785499389824 -6.484377248982791 -15 -7 3
1357 1 -0.005929052724422817 -9.176258659002464 -16.697921536287257 -6.353247913942512 -15 -7 3
1344 1 -0.007890500142124397 -16.336584521950225 -16.49911492073005 -4.990281882030142 -14 -7 4
1406 3 -0.6586286936421755 -16.694220127705044 -11.199201787691866 -0.8239320888177718 -13 -9 5
1951 2 0.04908209291972399 -9.668484529674574 -10.13634483304928 -0.19125844998815408 -13 -9 5
1355 1 0.2799333922700891 -12.369695053610728 -16.669373585815247 -5.351514971861454 -14 -7 4
886 1 0.007330257177536294 -16.07867983745603 -13.264834475981665 -8.261941736773933 -14 -7 4
2006 1 -0.04065188386140833 -16.436362528088814 -8.618801038069943 -0.7670165512080893 -13 -9 5
1482 2 0.01841328198241669 -10.40725127661104 -8.450094567020948 -4.829823872114783 -13 -9 5
911 1 -0.06801866003203379 -3.1402970801352774 -13.254017682816832 -8.227274282063963 -15 -7 4
849 3 -0.4959483625632176 -0.3284387272468378 -14.671915437234915 -7.5344288331822185 -14 -7 4
1895 2 0.04528866006712672 -4.955603834119215 -12.915811497676636 -1.2066444266018632 -15 -9 4
1374 1 -0.05464458125763334 -0.7848006729703126 -14.12646557026557 -5.192475571078292 -14 -7 4
1373 2 0.03590252875566567 -0.9205443039245389 -13.583144733715722 -3.1026845175295943 -14 -7 4
1371 2 0.05899166257187108 -4.118176973210295 -14.669490058081314 -3.309922407668445 -15 -9 4
1368 2 0.2664721337053996 -5.491276825898436 -14.874754897320232 -4.1363670834253075 -15 -7 3
1434 2 0.06875656730543137 -0.20537532967336852 -10.218176800785118 -3.1449135466567997 -16 -8 3
1432 2 0.04618032605024415 -1.4079334720519392 -11.220119090115524 -4.848619313671233 -15 -7 4
1370 3 -0.6638344574645175 -4.025859384720661 -12.039503522483257 -4.235817210243173 -15 -7 4
1429 1 -0.04670221320724817 -3.4071284869563785 -9.902203294654454 -5.270099121427615 -15 -7 4
1493 1 -0.004479600220534487 -5.667476742968108 -8.801341359089646 -4.4142669377366515 -15 -7 4
1961 3 -0.6047549395901188 -3.454467867715479 -9.264963723236152 -2.578277748491036 -14 -7 4
844 1 -0.01093446162715965 -1.9211131933255041 -10.67313424898635 -8.158796203521812 -15 -7 4
1966 2 0.3397901814242663 -1.2652736631615797 -9.85525354488966 -0.5816610467382624 -16 -8 3
2027 1 -0.02749893606948651 -5.419436959433205 -10.648106111212018 -1.5372018977928437 -14 -7 4
1422 1 -0.003374323105726291 -7.266906081034594 -12.837290543904714 -6.810583885051469 -15 -7 3
1308 1 -0.01931309159932639 -1.8550411861122569 -15.339940482440786 -4.867513451076265 -14 -7 4
1430 2 0.3329918548473784 -2.924141532849669 -9.987762313517697 -3.0274693133104256 -14 -7 4
1831 1 -0.0333187306223362 -0.11764826103317498 -16.470716628868647 -0.3025815047260465 -15 -9 4
1893 2 0.05052396054921682 -5.7995021656565005 -14.817464911142913 -1.3239336221386975 -15 -9 4
905 1 -0.004130867782207785 -6.577692036310334 -12.565274267734681 -8.078389583944752 -15 -7 3
1423 2 0.03322880859621501 -6.905313247766173 -13.478753817556868 -4.817708184910605 -15 -7 3
845 1 0.004186722130843028 -2.3420866281210584 -11.308224538720564 -6.927771924904665 -15 -7 4
1313 2 0.02232456458915625 -0.01165115024843171 -16.168767888712132 -3.066807785529494 -15 -9 4
1428 1 0.2705479528155907 -4.328275600701009 -10.631423583948546 -4.5821428070126755 -15 -7 4
1894 1 0.2758172433021635 -4.939384167045091 -14.104291550945593 -0.9502616408975335 -15 -9 4
1312 1 -0.01650169929700339 -0.911153083679113 -15.876834205694706 -2.5449258472611396 -15 -9 4
1310 2 0.071115486121091 -1.561023328789327 -16.24512267378314 -5.440902175400787 -14 -7 4
1826 1 0.2709484688798151 -2.390075265430577 -15.261184157477349 -0.57757578131369 -15 -9 4
1957 2 0.01435974763945675 -7.1625515172881045 -10.534956959065406 -2.664386757000888 -14 -7 4
1827 1 -0.03271841034755456 -1.2440633170850437 -15.833120534776578 -1.181370404838025 -15 -9 4
1496 1 0.01752496848318818 -3.6013918636244706 -8.614651915589306 -5.615599997342344 -15 -7 4
1955 2 0.05570709961622967 -7.063253118180467 -11.948602699521993 -0.70837291377874 -14 -7 4
2025 1 0.00835037563770594 -6.156725631173183 -11.277930902058227 -0.46144147205888275 -14 -7 4
909 2 0.05110890063528263 -3.5417227343589555 -14.291850600620933 -8.345101261186853 -15 -7 4
1363 1 0.2658957754809863 -7.067320030849837 -16.055084350689754 -4.644245746304982 -15 -7 3
1375 1 -0.009645723887424826 -0.4357252835464563 -13.204192061768628 -4.085569202762226 -14 -7 4
2028 1 -0.03488309464001005 -4.134924129905806 -9.301223722561387 -0.06562853806502233 -14 -7 4
1495 1 -0.03240982743358296 -5.427163043061748 -10.06825826954736 -4.058352141328424 -15 -7 4
914 1 -0.00481973917346783 -1.9738779105412894 -10.543441542853305 -5.651461419555064 -15 -7 4
1304 2 0.03588939560128625 -2.8546561738099197 -15.142557522519176 -5.319475228718253 -14 -7 4
1424 1 -0.03517964475183029 -7.426579755981541 -15.158186606871837 -5.591325072110512 -15 -7 3
913 2 0.02296784186042052 -3.5176185819644603 -13.110559570477267 -6.2894187117413125 -15 -7 4
1892 2 0.04536713436750044 -6.196273427495412 -11.961682846277363 -3.31100018787282 -14 -7 4
1958 1 0.0144595011201282 -6.113829188057812 -10.83084117673553 -2.9407132871494763 -14 -7 4
1425 1 -0.02620859336812774 -6.610441529659035 -13.841445813456483 -5.8094622819959465 -15 -7 3
1959 1 0.2847233954915075 -4.250302196748202 -9.775393246825162 -1.3776686643707192 -14 -7 4
1303 1 0.02279828178008215 -3.234454606390803 -15.012200618512825 -2.7185049310812346 -15 -9 4
842 1 7.047887257256163e-05 -3.0845141432289234 -12.53147612843076 -7.030246161105989 -15 -7 4
1897 1 -0.0445448488476498 -3.3182657810724283 -14.708303777736502 -1.400896961785674 -15 -9 4
1309 1 0.00928373582108886 -2.0346032163971577 -15.413985192142698 -3.3049675082197147 -15 -9 4
1372 2 0.2667983989293123 -4.38966662012355 -12.53990004751082 -4.934033706316844 -15 -7 4
915 2 0.02989630907351923 -1.6109322220620441 -9.616422657734974 -6.162417884016444 -15 -7 4
1900 1 0.2404302089723913 -0.3370818981676395 -11.53765053274101 -0.8220566795907328 -16 -8 3
1427 3 -0.6545604772067625 -5.773844029800771 -15.772266417184497 -3.8534014289745673 -15 -7 3
1426 2 0.006229183996184539 -5.540979064012857 -13.905615821780641 -5.747257296106243 -15 -7 3
850 1 0.2847221934014932 -0.0728075237940736 -13.995381334629222 -6.430794032666315 -14 -7 4
1433 3 -0.6748188915307121 -1.499729769101071 -10.525429813362642 -1.0246137735532357 -16 -8 3
970 2 0.3032875872850059 -5.963786283324935 -8.647286058681672 -6.691262260045584 -15 -7 4
902 1 0.2977784937466209 -8.343906111720367 -10.83300858858253 -8.328648339202593 -15 -7 3
1369 2 0.03440857021577881 -1.5836687247662253 -9.699635818568542 -8.202087972299964 -15 -7 4
1317 2 0.3471849232137351 -0.09497028503536312 -16.621096817252553 -6.549467826168861 -14 -9 5
1868 1 -0.05431204966508954 -15.101687428688193 -15.595224772429292 1.7279039721072702 -13 -9 5
2380 1 -0.01743887249634209 -16.09409771705798 -14.806565880411219 2.380424670537285 -13 -9 5
2386 1 -0.0189972364652152 -14.652858671758633 -14.70033736819721 4.489947924904463 -13 -9 5
2382 1 0.002303332273719583 -15.850415414512128 -14.22392452471144 3.71186574264994 -13 -9 5
1871 1 0.2464427872026835 -13.773324291125585 -15.530300831256026 2.2614494694878915 -13 -9 5
1874 1 -0.06387591640606996 -13.639599658985805 -15.15034358574093 3.5769324259042925 -13 -9 5
2388 2 0.02301878635999783 -14.386782458906774 -14.394943394828452 5.508901573520204 -13 -9 5
1876 1 0.01305399969725935 -12.335512356392806 -15.789967834913137 4.2929155630747955 -13 -9 5
2392 2 0.02705094700013793 -12.496286456865324 -15.639930630998373 5.313697327553822 -13 -9 5
1878 2 0.01343268613364817 -11.47652400321536 -15.215247002300506 3.9205192145313275 -13 -9 5
2979 3 -0.6489153701377607 -12.018030947487661 -12.146923005600193 7.333449479601213 -15 -7 3
2982 1 0.2607071974008488 -10.521922766447709 -11.949292322195841 7.1201353371800025 -15 -7 3
2445 1 0.007402233364699289 -11.714679037020813 -11.922388653613282 2.2588211151634616 -15 -7 3
2447 1 -0.004182973960691096 -11.471787205169752 -11.538871363651532 3.610969949537188 -15 -7 3
1866 1 0.009168727714138899 -15.595612682172018 -16.209987776158492 0.39902598535364464 -13 -9 5
1944 2 0.03725384223045366 -11.644623646557362 -12.969173212224009 1.9449392231807754 -15 -7 3
2446 2 0.03807177765303536 -11.967825926405077 -12.72799274098256 5.334075646092995 -15 -7 3
2448 1 -0.019170450170895 -11.00610810933251 -12.47400180700944 4.752441491138179 -15 -7 3
2443 1 -0.01886378022140328 -15.946842672343028 -11.346830274834486 5.56906355273021 -13 -8 5
2444 2 0.01596521299913555 -15.521796166657424 -11.9613211909158 6.3578867105644425 -13 -8 5
1940 1 -0.05509657046972 -12.715700930570847 -11.254874268159726 1.5269121020669831 -15 -7 3
2449 1 -0.05869665188187842 -9.966195619524699 -11.97061772088812 5.82874330337428 -15 -7 3
2512 1 -0.02146971604174831 -11.57958601708545 -10.167048630879528 3.7711600899192095 -15 -7 3
2450 2 0.03215350656801211 -10.510533987189671 -13.39453547573011 4.350254567910522 -15 -7 3
1883 2 0.3216823321984946 -10.405632034151466 -16.384725672025752 3.2355867506050746 -13 -9 5
2011 1 0.2281651808024504 -12.900353286003671 -9.904842739219484 1.755552030678813 -15 -7 3
2393 3 -0.5604415910392043 -10.394136337908707 -15.067811188933629 7.604583224020874 -15 -8 3
2977 2 0.02918850108064283 -14.47497343261047 -10.501116946768526 7.511353106329086 -13 -8 5
2441 1 0.01081626325748672 -15.533347864827402 -10.02908490182387 5.585308237745095 -13 -8 5
2513 2 0.01640183030971796 -11.396051768116285 -9.557184876940495 4.708121146647713 -15 -7 3
2503 1 0.008113578304652681 -15.864343842761874 -9.067306867190053 4.580560858234239 -13 -8 5
2509 1 -0.05649163814248 -12.413793765466485 -9.309304258010679 2.972245520629012 -15 -7 3
2504 1 -0.01552037298727627 -14.56222413869506 -9.69838900012344 6.8053177195879355 -13 -8 5
1873 3 -0.6566867766871285 -12.661256205677322 -16.27518472382975 1.5998476271976767 -13 -9 5
1949 3 -0.5929982246471517 -9.114576866811467 -13.23961779282436 1.620860853703926 -14 -7 4
2391 2 0.2736061255339196 -10.632324643205099 -15.309590529383163 6.657586528457558 -15 -8 3
2978 2 0.2876752208419928 -12.423066013866906 -11.78865707782453 6.61552675084892 -15 -7 3
1948 2 0.2583442796735073 -9.28905186404366 -14.1279451765991 1.9121641144575228 -14 -7 4
2396 1 0.1719935056234766 -8.832740198944881 -14.73215693301348 7.764993635627124 -15 -8 3
2506 2 0.05098763848519032 -13.509510265599868 -9.375612844956779 6.479298543196265 -13 -8 5
2397 2 -0.00595340900431493 -8.61106294333569 -13.608895495758798 7.606910150474653 -15 -8 3
1939 1 -0.03131893167087474 -13.68701014483147 -12.08621348987847 0.5225103862498187 -15 -7 3
1817 2 0.03486189775981045 -8.580092708823377 -16.28237109619184 1.4706031036714746 -15 -7 3
1937 2 0.01555790560085722 -14.342658226006108 -12.874302679194116 1.0663358244841243 -15 -7 3
2010 3 -0.6684944539187352 -13.858652970300598 -8.988802351465477 0.8571908049122089 -15 -7 3
3050 1 -0.04205002543520499 -15.16155876963654 -8.665321797126715 7.790077922170344 -13 -8 5
1872 2 0.2709506474699923 -12.094672866382965 -15.55776075867475 1.3416997598570999 -13 -9 5
2451 1 -0.01241673367944746 -8.57026578883717 -11.846631632672436 5.56790971823506 -15 -7 3
2013 2 0.3145581509603102 -9.097662392207711 -8.435168378696448 1.6820924606754974 -13 -9 5
2440 1 -0.02770722984940265 -16.671604098979287 -11.861064375473218 4.44410828706113 -13 -8 5
2984 1 -0.0440805843691247 -9.68086027435884 -11.465920269646311 8.143304976896715 -15 -7 3
2520 2 0.02629466073371745 -8.453906359777362 -9.199745814217925 4.855155718844782 -14 -8 4
3063 2 0.2828292926092069 -9.690714220988841 -8.866375249476175 7.256903697216665 -14 -8 4
2438 1 -0.04971210202573591 -16.72895094261866 -9.593804619206256 3.4848759843681005 -13 -8 5
2384 2 0.01664071454276193 -14.276644482544745 -16.669351969423268 7.682896989588103 -13 -7 3
1864 2 0.01954692788432498 -16.469267871857966 -15.511715958409019 0.14730080142282026 -13 -9 5
1938 2 0.08649947936497511 -14.511704155771028 -11.413820448108934 0.17977339049741314 -15 -7 3
1824 2 0.3305437598579456 -3.403829367685534 -15.253268116849153 1.2616850313974979 -15 -9 4
2334 1 -0.00800996235182988 -1.1836670433672534 -16.711725488572885 3.497574437001103 -15 -8 3
3067 2 0.3437994833108159 -5.032683979696499 -8.607914376237007 7.571750074817272 -15 -7 2
2401 2 0.01020245135104846 -5.98823377684466 -15.690730673161491 3.640833985083404 -14 -7 4
2399 1 -0.03616489045411706 -8.04017669673423 -15.931442362664114 7.1584743343412525 -15 -8 3
2015 3 -0.7038376593834617 -8.345408043598194 -8.398108492566204 1.249957857057187 -13 -9 5
2463 1 -0.03319625166052731 -4.233301859582126 -13.633204627961565 5.027825332536983 -15 -8 3
2465 2 0.0949580831087366 -2.977669264427681 -8.602672725528102 5.5782660407858105 -16 -8 3
2987 1 -0.003872968823218966 -8.268167679281168 -11.296301288485255 8.015582330520408 -15 -7 3
2993 1 -0.02629763144995789 -5.506838262341349 -11.897172438591461 8.090186527333922 -15 -7 3
2327 2 0.04909272504548583 -4.307646203371979 -15.512195453360452 6.437000640755178 -15 -8 3
3073 2 0.2769871553559527 -2.914966033952022 -9.999216421550766 8.380068974763407 -15 -7 3
2877 2 0.2702600084518602 -1.5212612829347167 -14.482392390859728 8.190606231212161 -15 -8 3
1888 2 0.03126960912854086 -6.5851572371834335 -16.283334284268292 1.8626678037989302 -15 -7 3
1896 2 0.06471678919513016 -1.6044685491904964 -12.468281574017633 2.2376349669776636 -16 -8 3
3012 2 0.04448829063605033 -0.9163626425168994 -11.671810457267028 4.839065718220738 -16 -8 3
2461 2 0.03707842035374037 -4.649891300693091 -13.943378062876793 6.026061718437985 -15 -8 3
2875 1 0.1858710160138295 -2.3787430670666563 -16.026656458323693 8.318457624908206 -15 -8 3
2402 1 -0.01920999320090376 -6.701560610846588 -16.001735437870906 7.330895745205731 -15 -8 3
2454 1 0.2026962165183318 -7.761748766661762 -13.358972205926333 2.501959324820042 -14 -7 4
2947 3 -0.5740912572942873 -0.988514341453843 -12.264077854968239 7.345004021802645 -16 -8 3
1822 3 -0.4521824670133605 -5.074347849853502 -14.023903977425679 0.34847617337805786 -15 -9 4
3006 1 0.0292914063953225 -0.6112924066597023 -8.921753676413456 7.548188415357092 -16 -8 3
2527 2 0.056598990936648 -4.861158323267985 -9.308736476638451 1.9854802358333654 -14 -7 4
2522 1 -0.01006160712269897 -7.1377703553084295 -10.963967438376613 1.8959899523497754 -14 -7 4
2526 2 0.02494090018187966 -6.240660098180404 -9.491616249178826 4.057260193518069 -14 -8 4
2026 1 0.01742844965992624 -4.974408426462011 -9.723018791199696 0.9982229124226815 -14 -7 4
2460 1 0.008094698543127696 -5.346329268928932 -13.625113219675214 3.9542764558904664 -14 -7 4