LAMMPS data file via write_data, version 2 Aug 2023, timestep = 1970000, units = real

3062 atoms
3 atom types

-16.76558630273882 16.76558630273882 xlo xhi
-16.76558630273882 16.76558630273882 ylo yhi
-16.76558630273882 16.76558630273882 zlo zhi

Masses

1 12
2 1.008
3 15.999

Atoms # charge

1059 1 0.02357533121290404 -14.086937301628785 -13.08673001014699 -15.114537895914106 -16 -8 3
1058 1 -0.04011329603757592 -15.461614542522764 -12.579701434802292 -14.713584001319642 -16 -8 3
1519 1 0.005632922109178248 -12.820105083120307 -12.216462236423812 -15.051614008590038 -16 -8 3
532 1 0.0004493965494440574 -10.183996311541012 -11.43853182721132 -14.913135297550776 -16 -8 3
998 1 -0.01854902312676764 -12.623558099292516 -10.864845375833381 -14.781292884529591 -16 -8 3
997 1 -0.01936280986442029 -11.283141021445685 -10.52023013347642 -14.977162900637946 -16 -8 3
1578 2 0.006492130989770573 -15.110248613239674 -10.81471651747187 -13.953348928734913 -16 -8 3
1516 1 0.005872349348350672 -11.798508668699318 -13.16352865521441 -15.48717232491402 -16 -8 3
1000 2 0.009627179164653546 -13.50113810719201 -10.140986853371116 -14.81116164521275 -16 -8 3
999 2 0.04445683193756234 -10.989979662948585 -9.380826100087232 -14.986411352348183 -16 -8 3
531 1 0.05063675934890985 -8.89168126188925 -10.754228810290918 -14.345374424282978 -14 -7 4
1122 1 -0.02783340685401475 -12.293393306478851 -10.259349620882261 -12.155899446138825 -14 -10 5
1513 1 -0.005504989887032911 -13.757297672380302 -13.991365142061866 -16.113948456359875 -16 -8 3
1575 1 0.04697268275305964 -15.774933709141647 -11.553494524468064 -13.630688684440848 -16 -8 3
1124 1 -0.04299339162865711 -11.82790449583643 -10.486014225509557 -10.78003145447551 -14 -10 5
1063 3 -0.5708241624601906 -13.314175815056478 -12.289441148568766 -11.188887994694115 -14 -10 5
1061 2 0.250747822395808 -14.007009646852831 -11.679533291344326 -10.900377554435762 -14 -10 5
1127 1 0.2103105847503742 -12.251854208879484 -11.681681101895576 -10.202887278233934 -14 -10 5
1128 1 -0.02252428163141349 -11.02444843695717 -9.49169928430905 -10.119422356942378 -14 -10 5
1123 2 0.08368414054476149 -13.209375327973612 -10.822990528159714 -12.142723285001193 -14 -10 5
1064 1 -0.02384670590231269 -10.355348250262052 -12.936296107800885 -15.268817173341459 -16 -8 3
483 2 0.009078563956035695 -9.214660062148953 -16.07989061917231 -16.279836338309853 -14 -7 4
950 2 0.03156598471113095 -9.815226225425363 -14.347587221635054 -13.381628499770892 -15 -7 3
1067 1 -0.04620985067980157 -11.660327650896155 -11.836956156344336 -8.911596462946877 -14 -10 5
1644 2 0.02197220332029343 -16.416458028932393 -8.783940676224272 -12.837991877832179 -16 -8 3
1062 2 0.01638522212543505 -9.616178630425548 -13.589138022086033 -15.604990460499897 -16 -8 3
1515 2 0.02466202159760197 -12.145554928194215 -15.570861930666984 -16.680895496611676 -16 -8 3
1126 2 0.01641158453407266 -13.057692434966498 -8.764016820582338 -9.80588586886027 -14 -10 5
1514 1 -0.03734420381334959 -12.197573247547977 -14.379164667723025 -16.4834182942628 -16 -8 3
1012 1 -0.01087773293833327 -10.585510638071915 -16.57146129257852 -12.782486011854008 -15 -7 3
1014 2 0.03635282836987137 -11.263360653384295 -16.217726707999834 -13.378292158435524 -15 -7 3
1121 1 -0.006864588498330862 -12.767409302921532 -8.778146345916948 -12.205135777183548 -14 -10 5
1511 1 0.01437136609354436 -14.957973119942213 -14.579301247273655 -16.606360256838286 -16 -8 3
533 2 0.02311614658012632 -8.956355921593037 -11.355159077186128 -11.816894643195702 -14 -7 4
1010 1 0.002138483184933704 -9.210076385434748 -16.205904888919637 -12.658083015379106 -15 -7 3
1510 1 -0.05149894198546009 -16.296413615226257 -14.142588762727916 -16.394122778610644 -16 -8 3
1120 2 0.03509477446799852 -11.356136206064443 -10.573252782133101 -12.52023178350352 -14 -10 5
1652 1 -0.00560719476761842 -11.32097560722552 -9.375151243507538 -8.736529685290721 -14 -10 5
1057 1 0.2534254440807768 -16.661668175022385 -13.12790066539356 -15.412850402643855 -16 -8 3
1125 2 0.02144356304307592 -10.814291885876239 -8.617065020227635 -10.648146921176972 -14 -10 5
3715 2 0.01509697895342737 -16.459979700269514 -9.003286784482034 -15.865916579427877 -15 -9 3
949 1 -0.04376026367460974 -8.820753323117184 -14.805595351391764 -13.244156046017151 -15 -7 3
605 1 -0.028313719104011 -13.564254895480863 -8.450665019889128 -10.936456487710482 -14 -10 5
1069 2 0.03350361145693516 -11.172966813528085 -14.18534638900395 -8.549077407879908 -15 -7 3
606 2 0.01928346637707759 -15.537870606263105 -9.041085759952608 -9.150027545269317 -14 -10 5
1075 2 0.01830285160691764 -1.7700217605950084 -9.548151709647701 -8.79857811170616 -14 -7 4
1145 2 0.02572074733967853 -0.4575709605653467 -15.174044562484786 -11.462428524435666 -14 -9 5
488 1 -0.04029835271987464 -7.255389991204452 -16.1312146486645 -16.669110302305924 -14 -7 4
1488 2 0.01039436983682309 -2.4798064322960216 -16.463772683619155 -12.674554662726107 -14 -9 5
3885 2 0.0147748122833238 -2.054946211878329 -8.622808529892382 -16.36618893592881 -15 -9 5
1072 2 0.04291127050740998 -2.854140255322497 -10.779202953258451 -9.234422084999313 -14 -7 4
490 1 0.16703537350386 -5.984460725856306 -15.631501263306435 -16.65214003579326 -14 -7 4
494 2 0.03124925148713331 -3.8414716243425144 -14.073700089635333 -15.802925670374435 -14 -7 4
1526 1 0.04941953065072595 -7.978762367755327 -15.73470351970022 -8.857074834110913 -15 -7 3
608 1 -0.001685541781007303 -6.692365441622368 -11.584239199964179 -11.543300388007514 -14 -7 4
2147 2 0.0342412824926706 -0.5688462287056038 -11.710319089323422 -9.613937767878758 -15 -8 4
1135 1 -0.0004014482283939691 -4.6465850098887564 -10.576360000859419 -8.72760973794423 -14 -7 4
487 1 -0.02458375657053697 -8.240067550219324 -15.8188256524655 -15.71549676342726 -14 -7 4
948 2 0.04817805074948036 -8.301749428803626 -14.134350109372173 -12.624736046867428 -15 -7 3
1672 1 0.009970910057776599 -0.9604228961379717 -14.188295922837698 -9.592171871098454 -14 -9 5
536 1 -0.01678138052677509 -7.9368334704620445 -11.421622601263095 -12.144904208293216 -14 -7 4
2015 3 -0.4631461932201148 -6.1100339037443145 -15.095571759790364 -10.957057408224117 -14 -9 5
1018 2 0.0180182326616106 -0.6603975030748103 -10.770753454631658 -15.519487186745906 -14 -7 4
545 1 0.3360779052529456 -2.6705923932552578 -10.423973171392996 -11.977598678578884 -14 -7 4
1017 2 0.02252934066562851 -3.296955335858443 -14.75855256789057 -14.301296159108078 -14 -7 4
538 1 0.3043752399605778 -6.497710119762713 -9.932430359173368 -13.66472662834548 -14 -7 4
558 1 -0.01959746309201771 -0.6076051215998381 -11.831256099885747 -15.3349336010462 -14 -7 4
609 2 0.03397178771984068 -7.703687101022488 -11.800618901917135 -9.594371855560327 -14 -7 4
534 1 -0.04550683333160446 -7.8055286492798945 -10.879806514867965 -13.523424121431745 -14 -7 4
1080 1 0.009756838932008495 -3.3461959479477836 -15.641249421112304 -11.331801730760485 -14 -9 5
539 1 -0.04013777043504354 -5.269963516196187 -10.741387026380792 -13.212579953623361 -14 -7 4
1599 2 0.05691445112089671 -2.0803543293378843 -14.036248637684462 -11.539660355386587 -14 -9 5
1083 1 -0.02191593586738713 -1.330240363241 -14.93154279515499 -10.94268026106016 -14 -9 5
1078 2 0.05553897648204548 -3.5973115543106324 -14.49929454729589 -11.558167117585388 -14 -9 5
1011 1 0.001908017864207738 -7.899616919881279 -15.27485297485276 -14.468844572944361 -14 -7 4
29 2 0.05458565392840101 -4.223410747725228 -9.95434890113032 -15.01568746693225 -14 -7 4
1138 1 0.0009895835130924614 -3.9512367382776064 -9.50403799849413 -8.781554612590805 -14 -7 4
612 2 0.08718429457938985 -4.913062333679599 -12.450376368069936 -11.615662453457833 -14 -7 4
542 1 0.004163054639315263 -4.081934692950835 -10.641482233929619 -14.180785282273131 -14 -7 4
1131 1 -0.0302901494900572 -6.683310875481003 -11.92212147374851 -9.899810746831555 -14 -7 4
1071 2 0.02432420977419218 -4.147940605437294 -11.507137689120858 -8.473023037699589 -14 -7 4
541 2 0.03599893934564548 -3.504906192031039 -11.483739273905229 -14.36420442900648 -14 -7 4
1082 1 -0.03224639277840354 -2.131544087228057 -16.26124116516971 -10.62036822809626 -14 -9 5
1015 2 0.05117044091972103 -6.272813364860508 -14.92757984551773 -13.048213552391834 -14 -7 4
1013 1 -0.02832908322981115 -6.524518730289884 -15.135108852772742 -14.232190381302528 -14 -7 4
537 3 -0.4816547401276865 -6.4166189453886995 -9.100951394990508 -14.651354399798874 -14 -7 4
557 1 -0.01267509615368402 -0.7386229011719164 -12.641594949719673 -16.532066364424757 -14 -7 4
1099 1 0.01073566502310118 -0.24190430374746175 -12.87831770067535 -14.54573950663096 -14 -9 5
544 1 -0.05005548491993281 -3.3898747900925676 -9.654220956944297 -13.183394326908601 -14 -7 4
611 1 0.02079921552475437 -5.352052971221091 -11.535046481848369 -12.231769506242532 -14 -7 4
543 3 -0.518545307562908 -2.835570784328005 -11.638729609022908 -11.688368859444465 -14 -7 4
495 1 -0.01487820988923092 -3.8843243642476195 -15.00436400193717 -15.167755517082464 -14 -7 4
1134 1 -0.02143652325930898 -6.384475098105184 -9.366093607614943 -9.804075517969402 -14 -7 4
2016 1 0.2654120404910523 -5.857278472784364 -16.18471398503079 -11.73986502962211 -14 -9 5
1130 2 0.06458468635198068 -6.067350168769649 -12.753401633238845 -9.551827468308499 -14 -7 4
546 1 -0.04505040711393751 -2.5305538316652183 -9.363848009802062 -10.891641971714202 -14 -7 4
1074 1 -0.02305821185351075 -2.6055685568200277 -9.78670389612247 -9.371631989025564 -14 -7 4
497 1 -0.01049153090540462 -3.716832199912249 -16.45903410807915 -15.403031186475122 -14 -7 4
1132 1 0.02357302925307559 -5.873462792476642 -10.566581898177164 -9.37936141978171 -14 -7 4
492 1 -0.02637600541856643 -5.513133205604309 -15.209011265255292 -15.29117699088207 -14 -7 4
1674 1 0.01717076733520837 -1.7612389228730598 -13.331793685452105 -8.87922680926659 -14 -9 5
1133 2 0.01657673854276034 -7.143407803677836 -9.624523968721393 -10.651001153274342 -14 -7 4
547 1 0.007458258848617054 -3.0286008094821866 -8.454075718574286 -13.318791500883824 -14 -7 4
2624 1 -0.01030699400520246 -13.164075543482074 -11.930365935070597 -2.9847391883190553 -14 -9 5
2625 2 0.01054592442048278 -12.20969780427449 -12.515307294873017 -2.5473928926439635 -14 -9 5
2116 1 -0.04897683855409649 -14.579042826157625 -12.254906450980695 -2.6867991283606836 -14 -9 5
2117 1 0.2443877989507914 -15.621530159738478 -11.486020978700378 -3.3187381565194647 -14 -9 5
3094 1 0.01265738259245099 -14.08029098697558 -13.805844480545042 -1.1342180108218802 -14 -9 5
2626 1 0.0008936909960156926 -15.34765013345165 -13.152409056081229 -1.6839614011300659 -14 -9 5
3095 1 0.006855275926269333 -14.225138874647282 -15.247874015436945 -0.966267737845912 -14 -9 5
2628 2 0.05550795516736179 -15.817886834217557 -13.888220104952877 -2.282264731157343 -14 -9 5
3092 1 -0.02013156630237359 -12.979939236655543 -13.326563961692989 -0.3447485250897955 -14 -9 5
2115 1 -0.05341192638824492 -15.270904802108703 -10.60851463342775 -4.239016691939967 -14 -9 5
3090 1 -0.002250344594111914 -11.70684817029811 -14.089338604047356 -0.41736233105951975 -14 -9 5
1588 1 -0.02128072767567965 -9.774206796477946 -13.459698332711126 -6.095250068222423 -15 -7 3
2763 1 -0.009700851565545107 -14.246656845908971 -8.670911649083402 -0.3396195652067546 -14 -10 4
1584 1 -0.001198409781254794 -10.430958375253992 -11.206177094743682 -6.915405448630348 -15 -7 3
2619 1 -0.02152336009357767 -15.336337264351426 -16.228391823953093 -1.4573600123838626 -15 -7 3
2060 2 0.008345725300015254 -10.050436749311551 -13.555496529740081 -5.069736309632353 -15 -7 3
2561 2 0.07689240701894524 -15.838646574011255 -12.371137612970385 -1.0323710771161851 -14 -9 5
3093 1 -0.006709252101769609 -13.14025895514643 -15.855400489689455 -0.33729286272699394 -14 -9 5
3097 2 0.03396049945891777 -16.17608537410661 -15.677529090387937 -1.0705677386064232 -14 -9 5
1586 1 0.001303933610490537 -10.886743217831643 -12.668624466037894 -6.9748957817643555 -15 -7 3
2059 1 -0.006691820527992973 -9.620125364167174 -14.79740688503181 -7.101511571451335 -15 -7 3
2618 1 -0.0004222460093496611 -14.521941609066054 -15.921285380861992 -4.164341211622359 -15 -7 3
1587 1 -0.009718456298388384 -9.457837596418225 -10.703824891367622 -5.959563557044496 -15 -7 3
2620 1 -0.01656662792454973 -13.88285534285182 -16.543152311198575 -5.138358236151309 -15 -7 3
2114 1 -0.004378513935155309 -16.3214862660776 -9.80119948412515 -4.791088195491092 -14 -9 5
1585 2 0.02013420639098264 -9.833620931257743 -9.800902249294571 -5.50078636808178 -15 -7 3
2623 1 -0.02681159849453268 -13.055496980988092 -11.484052837570669 -4.338008740436864 -14 -9 5
2113 1 0.004295502365088751 -14.051858919667383 -10.491847700954015 -4.919149997116882 -14 -9 5
2694 2 0.015084171176849 -12.219554608909135 -11.303542909392867 -4.9809994403388265 -14 -9 5
2622 2 0.01859038834025714 -13.428107209951579 -15.525796802989728 -5.568291364243096 -15 -7 3
3087 1 -0.04960964474199989 -10.221524726713765 -13.455236792007122 -0.42986755157472806 -14 -9 5
3084 2 0.01382829632950348 -9.990586792427544 -12.847448584247147 -1.3631066767245754 -14 -9 5
2173 1 0.002752044376534599 -14.596546903857032 -9.916389625641568 -6.137104080371691 -15 -7 4
2175 1 -0.01447359620946919 -14.63867041159384 -10.083488453685057 -7.4227158043566765 -15 -7 4
2063 2 0.01588889400781611 -11.166232360866863 -16.147559893102823 -5.2830206123554175 -14 -9 5
2775 2 0.0355360465061209 -8.570038328115425 -9.01847153983567 -2.2313763530973 -15 -7 2
2617 2 0.03015175126926254 -16.30236389436022 -15.649650921997404 -3.427015424432019 -15 -7 3
2061 1 -0.003537089163687772 -9.960595830390455 -16.086243030738803 -7.0459520423203 -15 -7 3
1591 1 0.004449221973155584 -8.442286800275188 -12.82189585506894 -6.222142953805605 -15 -7 3
3083 1 0.01008369650748101 -9.422496494665914 -14.858927992363016 -0.38967543886838757 -14 -9 5
1066 2 0.03884246123884628 -12.737189762037021 -13.602472750536585 -8.153427004348263 -15 -7 3
1068 1 -0.0168104493541787 -11.61687341276964 -13.207763196634453 -8.122987379282872 -15 -7 3
2170 1 -0.01753944714281765 -15.480973720256094 -8.88763089928079 -5.686674939519564 -15 -7 4
3085 1 -0.05278172925985108 -10.236026395344917 -15.850425421804298 -0.07609277869642868 -14 -9 5
2613 1 -0.01829644579619365 -15.42027015017167 -16.316056258235943 -3.1748443281540895 -15 -7 3
2171 1 -0.0255352574144966 -15.485489233965552 -9.183066239956421 -8.118041317791857 -15 -7 4
2178 2 0.01677789293320257 -13.998625742046107 -10.779962407445518 -8.209439817205402 -15 -7 4
1589 1 -0.009402511729803994 -8.386587595490818 -11.418103127281926 -5.643516333946277 -15 -7 3
1129 1 0.00208901648556175 -11.173852162927151 -10.695805529287338 -8.134080833538135 -14 -10 5
2167 1 0.00117990856923067 -15.889448600932756 -8.447690854856177 -7.152378273840994 -15 -7 4
2166 1 -0.01144665330917753 -12.851316837649929 -8.914670101688861 -0.3973883228185548 -14 -10 4
2172 2 0.08002817575116875 -9.703470313851058 -8.763944035220547 -0.07441058475079314 -14 -10 4
1654 2 0.0176000583850657 -11.73551198044664 -8.51790953577352 -6.859124693137669 -14 -10 5
2716 1 -0.05314868747523877 -6.68243720951548 -14.349210896852824 -0.07593919144565514 -15 -7 2
1610 1 -0.01258769622261469 -0.052815311266921496 -13.615136018487942 -5.652245968324404 -14 -9 5
2130 1 -0.08968994238906816 -1.5371912759540933 -9.193214970909953 -0.63142519116965 -15 -7 2
1612 2 0.004598376300560352 -0.07836194359041661 -12.462005501174366 -5.5279101202141145 -14 -9 5
1607 1 0.04734249603716939 -0.0918004228675583 -14.659621080746316 -7.3768460749502776 -14 -9 5
1675 1 -0.01931747793259749 -0.40652739086891676 -8.818404372547036 -4.1152769477282884 -14 -8 4
1680 1 -0.003838687337627007 -1.0641221975382409 -14.04779387812995 -6.636430659158508 -14 -9 5
1597 1 -0.004520096711366991 -4.475083279139843 -13.745510164414462 -3.452322819941919 -14 -9 5
2081 1 -0.0672507472836633 -0.30581849672804146 -16.598129993155517 -3.197143364126196 -14 -9 5
2126 1 -0.008459957013823932 -5.054901465082814 -11.58499321361231 -2.394754127221434 -14 -9 5
2062 2 0.05629307001078532 -5.715058127114143 -16.384479073353376 -2.054683936303477 -14 -9 5
1608 1 -0.03714788784995102 -0.2571341875460075 -14.559283827802572 -4.369792213814368 -14 -9 5
1671 1 -0.02056033150138441 -2.3009242766876836 -10.51442313578012 -5.208003159240411 -14 -8 4
2072 2 0.01876183514093938 -3.0845188370012298 -14.31270842855297 -4.91453764611029 -14 -9 5
2069 1 -2.042137887301593e-05 -4.089366646069769 -15.929251777538655 -3.7749880469112673 -14 -9 5
2065 1 -0.02908397390896357 -4.75899260625017 -15.72557139899203 -2.223739223471604 -14 -9 5
2124 2 0.03916361232379544 -6.452404453157445 -11.455765467467009 -1.0653569199126285 -14 -9 5
2143 2 0.01922695689143159 -1.1377506384571905 -13.155555791225014 -3.7562210289769973 -14 -9 5
2137 1 -0.004539335653512784 -0.3368129785856049 -11.37314141324987 -0.7502407537659249 -15 -7 2
2586 1 0.01296508459078965 -0.8847132588860555 -15.962119398859697 -1.8541071187471831 -14 -9 5
1677 1 -0.02695815632098092 -2.327784803432461 -13.564903605288244 -7.478629831416744 -14 -9 5
2134 1 0.004261062733377206 -0.5283511018339604 -10.006482438877475 -1.0504340745701592 -15 -7 2
1670 1 0.004053254734435973 -1.577576195736641 -9.243979262365078 -4.976802512985351 -14 -8 4
1595 3 -0.564050798660325 -5.9480073302959635 -9.429395255765177 -6.0511658075980295 -14 -8 4
2058 1 0.006144739458485714 -8.332369232467308 -14.666883703893097 -7.7936625057434945 -15 -7 3
2139 1 -0.0008211850121601551 -0.9254574248294389 -14.454044142092366 -1.8647770059523543 -14 -9 5
2131 2 0.01806866504084271 -3.4086864514811603 -12.480396097229306 -5.320116905614451 -14 -8 4
1592 1 -0.01643592296363283 -7.587221860474628 -13.848706622796866 -6.864669162297804 -15 -7 3
2066 2 0.03908219984163999 -3.782085427498405 -16.202305740614367 -1.8813632018871835 -14 -9 5
3081 2 0.02534622799529406 -7.717783803741882 -15.403053886406726 -1.9060061463412215 -14 -9 5
2067 1 -0.005398368010572235 -5.124197500975307 -14.235988221275418 -2.203925391196799 -14 -9 5
2641 1 -0.0004533898166908263 -1.67765514648277 -13.517288153527764 -1.0331167515042268 -15 -7 2
2127 2 0.03935856461459644 -5.11560902759663 -10.457849395305516 -2.703323059360012 -14 -9 5
2135 2 0.01346607591544742 -1.9037690927683386 -11.48894542536831 -4.860935812526378 -14 -8 4
1598 1 0.2110020398570293 -4.401145153038175 -9.470737242887514 -5.749018720042513 -14 -8 4
2128 1 -0.005749283391068227 -4.384069400209747 -12.395199674466163 -3.394720847612509 -14 -9 5
1602 2 0.01130095427048031 -5.3880838992961895 -12.256877826036353 -5.487251377103977 -14 -8 4
1609 1 -0.02139417624987582 -0.9084195360236532 -14.076593806982347 -3.240871326582372 -14 -9 5
3082 1 -0.06087298703203567 -7.96343563187276 -15.331148750204333 -0.699151876332081 -14 -9 5
1593 2 0.0243031721186819 -6.578916295292179 -13.701266912096127 -6.733651311108719 -15 -7 3
1596 2 0.2268786055989642 -6.150400811364992 -10.364627206837211 -5.589502835736528 -14 -8 4
1601 1 -0.02729688836427877 -4.348259564750108 -11.994954774925308 -4.958070459260603 -14 -8 4
2125 1 -0.01658414437840101 -5.825358556909178 -12.175200483711183 -1.4573269036699161 -14 -9 5
2068 1 -0.03010448021069694 -3.7955916121187117 -14.536028670260977 -4.197652262426114 -14 -9 5
2138 1 0.007390614998766597 -1.6398348233452065 -12.059894110174746 -0.7293057639567856 -15 -7 2
2573 1 -0.00597057624395185 -5.865431325483142 -13.620992677738272 -1.266492768596125 -14 -9 5
2132 1 0.2614090322227807 -2.696897377392657 -9.62432987227364 -0.2612837221963167 -15 -7 2
1590 2 0.01735155111324655 -7.60422205457517 -11.048742603652023 -4.878830943161101 -15 -7 3
1600 1 -0.04917998360792131 -3.726259878141858 -10.593761916985777 -5.1704643331058175 -14 -8 4
1678 2 0.03129577969964641 -3.1727781405926394 -14.01052887547227 -7.196372866356411 -14 -9 5
2196 1 -0.06418028592354942 -2.7085479288838465 -10.990984800737943 -0.15947096389675067 -15 -7 2
2637 1 0.002029314652166561 -0.9035671856701694 -16.600271485637364 -0.5570526486446293 -15 -7 2
3795 2 0.06357109412562735 -13.90675469704614 -11.698920986567549 6.047152308684687 -14 -8 3
210 1 0.01083955151681114 -13.930460822868758 -10.427588717608506 7.887302844103928 -14 -8 3
3859 1 -0.02921156905972894 -14.140602574505099 -11.75691287094582 7.018041594730645 -14 -8 3
3290 2 0.02533207753830562 -11.472604551194502 -14.789769995085045 5.311647317199309 -15 -7 3
3288 2 0.01924340445991625 -12.402224744636039 -14.979361571453369 3.6568899177154024 -15 -7 3
3289 1 -0.0007684352725710018 -11.509212336800818 -14.478368363979355 4.216102265039883 -15 -7 3
3291 1 -0.0693109155082153 -11.191341231124149 -12.887992544992462 4.582175523693563 -15 -7 3
3173 1 0.005085300515678223 -9.955454147140825 -16.22106104053024 8.03606780112658 -14 -8 3
3352 1 -0.01656818735170601 -16.688414788775702 -8.727911139235804 4.220990169113786 -14 -8 3
3678 1 0.00345829919513194 -13.348370775342817 -12.59797642311134 7.937334371247621 -14 -8 3
3286 1 -0.06909396021167311 -10.2511036408431 -15.473912870284241 4.243876598753163 -15 -7 3
3865 3 -0.588261853159128 -13.800018008186195 -9.680875873049033 4.584273898237053 -14 -8 3
3292 1 0.06054565930198729 -11.963883828727472 -11.937294991599968 3.87936567421193 -15 -7 3
3296 1 0.02388586956614101 -10.823398167247337 -10.798314550870321 4.487200667404286 -15 -7 3
3297 1 -0.0667598880536191 -9.576172892503884 -11.306965895098203 4.760308186916509 -15 -7 3
2777 1 0.03247300378277053 -10.663494557834657 -9.31998169504184 4.223931948841792 -15 -7 3
3294 1 0.289810450848717 -9.787515199845025 -12.606574926423145 4.883064392663569 -15 -7 3
216 2 0.04770766243689181 -12.256405936761166 -9.857179800173558 6.850038793742103 -14 -8 3
2691 1 -0.0224953964525744 -15.15326932111903 -9.8117899162646 0.47453972075372636 -14 -9 5
2161 2 0.03298997376716907 -14.822166508928591 -9.84796778194204 1.5098750543804462 -14 -9 5
3353 2 0.006491748521325759 -16.548661245996893 -8.634958757038566 3.0859539162845966 -14 -8 3
3284 1 0.2609424590474742 -8.973389333340545 -15.061524013973512 4.477824127824744 -15 -7 3
3293 3 -0.5886256583222881 -8.800649668644013 -13.662140548825223 5.135411717574649 -15 -7 3
2692 3 -0.4536727237589675 -16.45265866924235 -12.311764008514196 0.9354455670743466 -14 -9 5
2165 2 0.02357805074553635 -12.695089180624258 -9.902265064894468 0.23857975666885495 -14 -10 4
3170 1 -0.03332190389897917 -10.677495252880295 -14.832650600223447 8.191219565322138 -14 -8 3
3866 2 0.2418243616784673 -14.338018243807193 -9.441884331760258 3.730523693671465 -14 -8 3
3169 2 0.05584353690537129 -10.35262652953235 -14.043815416283346 7.2933555426886985 -14 -8 3
2757 2 0.0483487715803747 -14.85887037663967 -10.932473466634903 0.011591575611419089 -14 -9 5
3862 1 -0.02094115319150257 -12.893847402227102 -9.27368063917517 7.441183556133046 -14 -8 3
3086 2 0.03040758081690696 -9.874740016094037 -13.086945538268495 0.3910871222748492 -14 -9 5
3796 2 0.06026287661008185 -15.59947455834866 -11.045336604709696 5.226266152962098 -14 -8 3
3167 1 -0.02206132304852178 -12.940811669337375 -13.89249827593056 7.293677480909633 -14 -8 3
3790 1 -0.0005125786900162937 -15.418669231039694 -12.72542003264189 7.44238937996664 -14 -8 3
211 2 0.01185022722489396 -12.363663104788362 -8.608944526781324 8.114609947411179 -14 -8 3
3864 1 0.2274700155127901 -14.48824629924702 -8.671205440280257 5.527325960873588 -14 -8 3
3171 2 0.02121027889514741 -13.039048567662839 -13.990275244897678 6.089555256472549 -14 -8 3
2555 2 0.03838220633446934 -13.017933253352394 -12.740613023699735 0.5900375618234914 -14 -9 5
3091 1 0.0005120696402974717 -11.875847394930537 -15.35991244201319 0.057777392568896815 -14 -9 5
3166 1 -0.0007188264334958977 -12.273149186010714 -14.930736808606053 7.998846936746348 -14 -8 3
3300 2 0.02162173114044244 -8.516217987733313 -9.58809352945519 5.041059967162884 -15 -7 3
3793 1 0.004274000270083581 -16.721491052539008 -11.369853788803177 5.008915181892365 -14 -8 3
3861 1 -0.02983368459680443 -14.027413253736537 -8.460384489377859 6.813895130888302 -14 -8 3
2689 1 -0.02473886442773071 -16.582663534731946 -9.96842781465651 0.06091428392526051 -14 -9 5
3080 1 0.1769745717839079 -7.452717634393321 -16.47316155304304 0.045597320425434476 -14 -9 5
2709 3 -0.5001935892710655 -8.128324381270382 -8.61333433003061 1.52748692490581 -15 -7 2
3254 1 -0.05063133736497868 -0.23485635889018355 -8.625568957238373 5.435409566220111 -15 -9 4
3632 2 0.02536045554827269 -1.2537264427013695 -16.310717675474514 6.328604657286202 -15 -7 3
3230 1 -0.01749578259987929 -7.337768974396065 -9.017570644405978 7.225683681561477 -15 -7 3
3255 1 -0.02934448043488515 -1.0771081018250315 -9.450606054190992 4.36903342275461 -15 -9 4
2713 1 0.2149191506853186 -5.6254567474285615 -15.210828645472015 0.4395420930873705 -15 -7 2
3222 1 -0.1031075697676206 -7.8272011963526 -15.702527518661775 4.158809263852097 -15 -7 3
2638 1 -0.006417446004467354 -1.1363653821373185 -15.979938794510755 0.6795825537137634 -15 -7 2
3299 1 0.001782488212286281 -8.288506489200499 -10.490170137330855 5.175111961224119 -15 -7 3
2194 1 0.2577288648262746 -4.42077609744044 -9.190961086408322 1.4350964106692858 -15 -7 2
3298 1 -0.05023463047378877 -7.707358674310375 -10.35432821294224 6.804585966555072 -15 -7 3
2193 3 -0.5133107947494084 -3.7576542942213744 -8.629716971243294 0.2041043714312238 -15 -7 2
3217 2 0.0682333930893685 -7.029531194844092 -14.075051041413072 4.101206198560296 -15 -7 3
3242 1 0.008383652787915301 -2.8939755818017225 -9.483082582731045 7.95762154711939 -14 -8 3
2794 1 -0.002673295355899719 -3.529946408496405 -9.50030157280624 6.657118179100305 -14 -8 3
2699 2 0.03684853672511664 -4.751092503455375 -14.549186979387407 6.2534571577912885 -15 -7 2
2695 2 0.09989430538569742 -7.005497433576992 -14.45879575548433 5.928785612808757 -15 -7 3
2640 1 -0.007125260069403481 -0.5945690965736038 -14.654696103508048 0.7014164512198889 -15 -7 2
3692 1 0.02211216371234323 -2.356523330468037 -11.922731932603098 7.757200159799887 -16 -7 2
3301 2 0.03716372380708746 -7.4320113501856175 -10.72250308293016 4.455046685582019 -15 -7 3
3188 1 -0.002880748591646987 -0.200801810185921 -13.225279174298807 5.278600594367782 -16 -7 2
2706 1 -0.00652088740900137 -1.802957018502797 -13.945592403967812 0.37602061662209907 -15 -7 2
3184 2 0.01274244320192818 -2.472434114492156 -12.738051611196358 5.84313916573044 -16 -7 2
2791 2 0.02686731938172816 -5.382349659355887 -9.714605118192242 6.157927684405705 -14 -8 3
3187 1 -0.04852168812079765 -0.5698233580175476 -11.90675488483584 5.641775587674537 -16 -7 2
3812 2 0.3476837638940813 -7.632230138429194 -12.963992573623727 6.504806226493069 -15 -7 3
2721 1 -0.01138568642537129 -5.0827969618294535 -8.616146634041845 3.7211021654919825 -15 -7 2
2197 2 0.0123438612303786 -3.3834370845897213 -12.509904853877494 1.2331275227883647 -15 -7 2
2198 1 0.02044120007574186 -3.4457788520827606 -11.407346454314757 0.9335983084566928 -15 -7 2
3183 2 0.02399689463551047 -2.3488529834829333 -10.865259005893686 5.9726138248495655 -16 -7 2
3811 3 -0.637829198187168 -7.141438873445389 -12.959480019403 7.31466680557688 -15 -7 3
2708 1 -2.187857215862898e-05 -2.85437546523654 -14.756841074649223 1.2080296435607962 -15 -7 2
3186 2 0.01529362215877078 -0.9144013678217705 -14.132193615314854 5.1988186408909405 -16 -7 2
2742 1 0.006076173290509704 -0.24880376494511508 -9.333164096089366 2.952317741014595 -15 -9 4
2702 1 -0.002597921832035197 -4.063771411922343 -16.66062321623534 6.200951752376256 -15 -7 2
3224 1 -0.04317972551397173 -5.471809609940413 -15.593019886983711 4.629193220675277 -15 -7 2
2711 1 -0.01851695696017203 -4.255753436560717 -14.901137152128225 0.9153902334363063 -15 -7 2
2723 1 -0.004228638312202528 -4.759877017973744 -9.964783268847306 4.227830066810239 -15 -7 2
2725 1 -0.05553924518378518 -4.233138885934398 -10.505528900810273 1.7673362654695073 -15 -7 2
3237 2 0.03056797613642692 -4.574616502228728 -11.305452412064055 5.889264311061454 -14 -8 3
2698 1 -0.01960127816496639 -4.704839745950786 -15.454616278679168 5.689490823405006 -15 -7 2
2728 2 0.02089933614737292 -5.151126548924316 -11.921106152633536 3.2184990164613154 -15 -7 2
2726 1 -0.00802946441471844 -4.875570070716429 -10.85165877682308 3.1077883036233285 -15 -7 2
3221 1 0.01723456263496718 -6.793494635865792 -14.836273789414065 4.88874856769412 -15 -7 3
2724 1 -0.04600057303903082 -4.554517417809265 -10.250280802001026 5.859314439189492 -14 -8 3
3185 1 -0.01308067198205639 -2.0327750229279498 -11.883146764646032 6.23199458048265 -16 -7 2
3232 1 0.232536248882332 -7.275736804437423 -11.437554393804634 7.711414703308202 -15 -7 3
3252 2 0.02345102072786748 -2.043114734435052 -9.054023707738882 3.947760688946115 -15 -9 4
2633 1 0.001110456951973399 -2.423172735898112 -16.14186682626974 1.486882463935306 -15 -7 2
2199 2 0.02697024183118804 -6.757069642740225 -13.467864155760083 0.5767272971986888 -15 -7 2
2571 3 -0.4226963679128767 -5.983328257346234 -16.67860581471745 0.4312030967686387 -14 -9 5
3256 2 0.03304943148404849 -1.2255010271137792 -10.129729717565228 5.18323651934075 -15 -9 4
407 1 -0.001909532678380441 -14.695520331849401 -15.89360775281526 14.771687531023849 -15 -8 2
37 2 0.01368195368797803 -11.870800211258278 -11.424704471550307 14.914002475805704 -15 -9 4
38 2 0.01581198731240518 -10.713637411872357 -12.058612830093473 12.08659281858906 -14 -8 3
106 1 -0.01702661648829898 -10.817166095288718 -11.330907650462137 15.10181717837243 -15 -9 4
3684 1 -0.01771435331510785 -10.499699360118674 -12.897683081577359 12.905802529723092 -14 -8 3
154 1 -0.01795331634941611 -15.690121895001223 -12.588526000737378 9.024826992802346 -14 -8 3
3163 1 0.0004464069091800471 -13.618359751117342 -14.183309813395208 9.65868000859214 -14 -8 3
206 1 0.006818159111677467 -16.22354817409281 -11.076578948070132 9.203809279088029 -14 -8 3
3663 2 0.02054482055895361 -14.224944926669163 -9.769804238455015 13.551500253379723 -15 -9 2