LAMMPS data file via write_data, version 2 Aug 2023, timestep = 200000, units = real

3777 atoms
3 atom types

-16.76558630273882 16.76558630273882 xlo xhi
-16.76558630273882 16.76558630273882 ylo yhi
-16.76558630273882 16.76558630273882 zlo zhi

Masses

1 12
2 1.008
3 15.999

Atoms # charge

813 1 0.008975150472872102 -15.481209906659144 -14.117687264551748 -9.198052777317072 -13 -9 5
292 1 -0.004573301405766256 -15.735771824564896 -13.633768403084224 -10.498870875801904 -13 -9 5
3951 1 -0.02234210033305836 -15.279990853438678 -13.223182976646061 -14.03507955292958 -14 -7 4
3877 1 -0.04413385888661847 -14.624067986125917 -13.42281572281876 -15.269487648761723 -14 -7 4
3874 1 0.2664444687550681 -14.750607508546517 -14.560306761043389 -16.059870096364882 -14 -7 4
231 2 0.03693920816508679 -13.275221080900772 -13.168686939542747 -13.039012242272577 -14 -7 4
294 2 0.03255785423975324 -15.231053532924824 -12.327126251351576 -13.428326388428179 -14 -7 4
3955 1 -0.02234603970157197 -13.48354700841735 -12.341869950639964 -15.57703973400227 -14 -7 4
296 2 0.01551394554732515 -12.024705310763352 -11.297141673006479 -11.318329019345796 -14 -7 4
3956 2 0.04777929101622008 -13.964100897456763 -11.495144906313325 -15.072895322806819 -14 -7 4
3879 1 0.001246428988832607 -12.352275558490534 -13.25895789926309 -13.57055324192283 -14 -7 4
298 1 -0.02144226691589371 -11.23937012339531 -10.816105460447188 -10.698699304726173 -14 -7 4
3880 1 0.02693069504537106 -12.24113806665931 -12.961852781822378 -14.937688298575019 -14 -7 4
232 2 0.08131629189221752 -11.19812239327865 -13.884613937546245 -11.777829589239937 -14 -7 4
295 2 0.02915266872789314 -11.407555310156676 -10.383423164705299 -13.193536966585453 -14 -7 4
233 1 -0.05982468626029475 -11.205565719388696 -13.824791246478265 -12.85708074757934 -14 -7 4
300 1 -0.005876000063643777 -10.502882267865395 -9.801423579788494 -11.324543134615737 -14 -7 4
297 1 -0.03405101140092821 -10.942115987637363 -9.48741751366146 -12.785936304137039 -14 -7 4
3884 1 -0.005579650088860095 -10.958990363135008 -13.035410257807118 -15.575835563877835 -14 -7 4
285 2 0.02310625402103367 -15.51991687258361 -10.794142907220486 -10.533266701250389 -13 -7 4
820 1 -0.06983137558735622 -10.867204151940097 -11.209970835190392 -9.40007018585124 -14 -7 4
3886 1 0.2391092907501225 -10.054933928663267 -14.119901817044854 -13.590089261610316 -14 -7 4
3887 1 -0.01427731553176842 -9.93580327367545 -13.744970815877155 -14.912992674236099 -14 -7 4
234 2 0.01090916488652074 -9.88856379498999 -12.923995244325017 -10.666043507791818 -14 -7 4
765 1 0.01011082478966263 -9.62337495206513 -13.52240140261904 -9.769368380167661 -14 -7 4
303 1 -0.04452802437775556 -9.08968055436793 -9.668232305857032 -9.392644291389848 -14 -7 4
817 2 0.03779263720929209 -12.43698426745115 -12.824648761594073 -9.583637508177713 -14 -7 4
352 3 -0.6449245897103267 -14.467607784363464 -9.692571994796337 -12.85241713115694 -13 -7 4
227 3 -0.6564289789349761 -12.297575850878454 -15.713539020047074 -10.709895077149524 -14 -8 5
822 1 0.2396479645032999 -9.788394994293462 -10.66017269459569 -8.671487389725462 -14 -7 4
286 1 0.2408334266795191 -15.942424969388517 -9.915575223750233 -12.390050463514479 -13 -7 4
301 1 -0.02056160901029001 -9.379297769715144 -9.187790125643884 -10.725671477986987 -14 -7 4
815 2 0.01885930566822962 -15.093463522119546 -12.098773607193438 -8.448003652525193 -13 -9 5
351 2 0.283350790788628 -14.06150577348555 -9.752489881936047 -12.030665337936899 -13 -7 4
819 1 -0.01214097369538426 -11.629517218795803 -12.49483449515391 -8.858032777671918 -14 -7 4
763 1 -0.04654508868247496 -10.347569348034815 -13.476441991699353 -8.565635852441776 -14 -7 4
753 1 -0.01078925610317703 -15.428883831963157 -15.487766865724454 -8.763504659123866 -13 -9 5
3890 2 0.3154137950269805 -9.213133357039153 -15.088918332414025 -12.21407238764625 -14 -7 4
237 3 -0.6641566287014241 -8.896327926725055 -14.994184779128483 -13.072389612233692 -14 -7 4
3889 1 0.003365290043448089 -8.651842127054111 -14.2391730474481 -15.667401483281655 -14 -7 4
226 2 0.4023821487686844 -12.407485195383646 -16.273182309246835 -11.360908903496066 -14 -8 5
3882 2 0.3263971100974174 -12.091730188259168 -16.238684334978817 -16.59715476354343 -14 -7 4
3885 2 0.1101753327393864 -9.47605492012362 -16.347673465937618 -14.571266043901248 -14 -8 5
289 2 0.01237986392187504 -15.80520884042224 -12.543639015931602 -10.635314419764189 -13 -9 5
291 1 0.002183989307267504 -16.200877234154312 -14.170923758010145 -13.740559319655437 -14 -7 4
283 1 -0.06345003836691432 -16.319325207374415 -10.41706004248568 -11.152817032142103 -13 -7 4
3872 1 -0.01215353799852783 -16.348517603444957 -15.398403211364295 -14.427425952755804 -14 -7 4
3873 1 -0.06079638844060755 -15.50883769069453 -15.639162366735873 -15.48023754846779 -14 -7 4
3888 2 0.04664208604190953 -8.752677533180785 -14.159026089037628 -16.696905929148457 -14 -7 4
3881 3 -0.6755848164535105 -11.449479868788137 -16.516137709046067 -15.961094190119617 -14 -7 4
3949 2 0.003205171918588783 -15.418795151919872 -10.29139587417864 -15.877319818314524 -14 -7 4
225 1 0.2604700920487222 -16.606589224529397 -15.862002737198784 -10.971954749859362 -13 -9 5
299 2 0.02427669152017618 -10.013786208549565 -9.197084382868958 -13.304456528441209 -14 -7 4
290 1 -0.04503727268023842 -16.447351621796724 -14.504318309245683 -11.37579814427299 -13 -9 5
3883 2 0.05530370743911882 -10.819880253922182 -12.84861542162751 -16.7005919555226 -14 -7 4
3957 2 0.292583311504906 -11.464760373143609 -8.986886021816833 -15.294449913827021 -14 -7 4
751 1 -0.01250635739154567 -16.15931231364084 -16.25527198364716 -9.698321488499015 -13 -9 5
229 1 0.2466036037298293 -12.397882470933295 -16.621737778102148 -9.41490407551546 -14 -8 5
4015 1 -0.009006764356865194 -16.66185015700607 -8.43173492941254 -14.37999005108658 -13 -7 4
3878 2 0.07081710566277423 -13.227029303922954 -12.187890876113885 -16.64492448980484 -14 -7 4
3961 2 0.02028818952029884 -8.462370816460387 -11.823926787030146 -13.910182826628334 -13 -7 4
175 2 0.3562886958966752 -11.46134443102999 -16.691413421291067 -13.96581109321191 -14 -8 5
3963 1 0.007272216765832319 -7.64120419818776 -11.964784439273826 -14.647297793562927 -13 -7 4
3977 1 -0.03182079058513387 -2.8660109127113227 -12.144241393479897 -16.429469087015864 -13 -7 4
3897 2 0.2752341785568093 -6.165603362896062 -16.612530286871845 -13.334098757104138 -14 -7 4
3898 1 0.2458047984959351 -4.333064857974931 -16.433859041809285 -12.624780991252656 -14 -7 4
910 3 -0.5680416295666677 -0.5263712447481401 -9.422084761559496 -8.492127197231476 -15 -7 4
3966 1 0.0001197344924618038 -6.700232537147779 -10.09119959154221 -13.402190165140885 -13 -7 4
308 1 -0.01825383511088347 -6.434648422111158 -12.50292360837731 -9.959908109166735 -14 -7 4
241 2 0.02620866012617681 -6.40053078728332 -14.545563734970422 -10.644624848219745 -14 -7 4
306 1 0.003643433374760603 -7.162378987923937 -11.367417165314412 -9.63521934350414 -14 -7 4
243 1 -0.07328029113455474 -4.702108831086463 -16.325451434789112 -11.258699597191104 -14 -7 4
249 1 -0.02020931336622795 -1.1666953635265112 -15.417965378464073 -9.714440573885055 -14 -7 4
3967 1 -0.04186771761896384 -6.606483191468469 -11.054609532827852 -14.651299376371364 -13 -7 4
373 1 0.2477883892471929 -4.954218602975115 -8.929344618933708 -11.784527757334773 -13 -7 4
3964 2 0.05406396607543267 -6.876687514662231 -9.14345965168201 -13.880955734696988 -13 -7 4
3891 2 0.05969499590754276 -8.191190076781288 -15.259212067723828 -15.42310089177822 -14 -7 4
313 2 0.03025020535479143 -2.456331553458884 -13.314765390157596 -12.307165415228399 -13 -7 4
767 1 0.01000713637365252 -8.351304569235966 -14.082605374005027 -9.507994675816075 -14 -7 4
240 1 -0.04252771723408347 -7.262168736758212 -13.765746211327736 -10.56447633677713 -14 -7 4
251 2 0.006057102771807555 -0.519296513684208 -14.747352557424138 -10.323200232584073 -14 -7 4
3981 1 -0.01340763631101204 -0.794798440860654 -11.030408609505312 -15.998263569611272 -13 -7 4
304 2 0.0151506833782805 -8.147820259341422 -11.55605225572241 -10.095866591650957 -14 -7 4
250 2 0.01150005782225383 -0.6120507374018275 -16.325638858386583 -9.31321567901789 -14 -7 4
314 1 -0.03130391102714 -2.14979235898907 -12.279146001244724 -12.546064624283048 -13 -7 4
3902 2 0.03024237947630928 -0.49073919403390437 -15.66393460030882 -15.360377555808896 -15 -8 4
380 2 0.04006124018923084 -1.5661075327495853 -9.723032419421134 -11.795494719860292 -13 -7 4
3892 1 0.01367579534356854 -7.539168975479204 -13.130390458849247 -15.438913481888518 -13 -7 4
3972 2 0.01597947351900746 -4.985169647082375 -12.196014544887635 -12.868548052212375 -13 -7 4
3968 1 0.2750599574916573 -5.695473714258569 -10.962373898722726 -15.730347951312934 -13 -7 4
4037 2 0.09070829758105663 -6.650509540765216 -8.745874972039882 -16.45183463520211 -14 -7 4
3970 1 -0.05524207821642102 -5.4518759416463505 -12.19873161736232 -16.339364840613325 -13 -7 4
305 1 0.001291396438343386 -7.812110107946792 -9.065023458324807 -8.797737393018123 -14 -7 4
772 2 0.02180265238279421 -4.6300248838444285 -13.398340975701315 -9.498256532094887 -14 -7 4
311 1 0.01156805941316712 -2.6854420501730694 -9.836152860384976 -11.867936919524489 -13 -7 4
3904 1 -0.02880307256799281 -0.5750003365942203 -16.463744599516055 -16.13364563790561 -15 -8 4
375 1 -0.04243312277830007 -3.603748847491493 -8.896676084015695 -11.413713870220493 -13 -7 4
3976 1 -0.0008330405627696852 -2.890615789889237 -12.724006363297061 -15.076546114052652 -13 -7 4
242 2 0.05615623381437468 -5.752148802550552 -16.628277863768954 -10.978390479842515 -14 -7 4
3901 1 -0.01832050556240501 -2.060767438820427 -15.602702998210162 -12.16244280697636 -14 -7 4
310 1 0.02614172803746778 -3.194683173725475 -11.10883688774939 -12.28284050386708 -13 -7 4
3971 3 -0.6332786961298517 -4.705447856111429 -9.832484642263164 -15.834206023196998 -13 -7 4
244 2 0.03152496709088321 -3.918108883329757 -15.796313131674616 -9.31226592170074 -14 -7 4
3894 1 -0.007175830747125474 -6.3378883183741666 -13.255505669875372 -16.28238583983718 -13 -7 4
3978 1 0.0140006007666323 -2.025234467052596 -12.145310774624864 -14.142373312302288 -13 -7 4
239 2 0.04273044952079429 -7.57588606566737 -13.517547134747106 -11.583518898279795 -14 -7 4
309 1 -0.009398562867944799 -5.147794881198026 -12.442003239335712 -9.446042665891099 -14 -7 4
247 1 -0.05338220280868519 -1.8266627390844596 -14.657250586015936 -8.573065601923581 -14 -7 4
3974 2 0.3128868669105965 -4.422453207854537 -9.796324539507891 -16.71908233547448 -13 -7 4
830 1 0.2335746399553674 -5.362784896949091 -10.001728235527054 -8.726158683259001 -14 -7 4
833 1 -0.035198463159997 -4.695349407735669 -11.267972832895444 -8.772409066465462 -14 -7 4
3975 2 0.02147253212279719 -3.7602863996849565 -13.275427958675401 -14.682617485147793 -13 -7 4
316 1 0.2596887268708689 -2.037529293124586 -13.260955955079682 -8.609306547862467 -14 -7 4
3962 2 0.02113295837363081 -7.4656671470328755 -10.278704406583117 -12.619281444499451 -13 -7 4
245 1 -0.01138119594205804 -3.6811787212017313 -15.863149006607951 -10.385152942134832 -14 -7 4
246 1 0.0004803802904420652 -2.382059140751383 -15.617334176901306 -10.80808646164025 -14 -7 4
3899 1 -0.05727086255378365 -3.0383215694685854 -16.11552119580666 -13.04543269561036 -14 -7 4
315 3 -0.6017868441671905 -1.3520883757364712 -12.36332958162212 -9.652771222565207 -14 -7 4
3900 2 0.04939322156978122 -2.740007877931962 -16.03148078918523 -14.09795508737286 -14 -7 4
3906 2 0.01345914924376673 -1.0700399766015827 -15.338144324207443 -12.478261160991464 -14 -7 4
312 2 0.2929912050478238 -0.6958498575617768 -12.894278561825407 -9.9943084239167 -14 -7 4
3969 1 -0.002968861957347833 -5.307119880738565 -10.017910223004037 -12.653232334099188 -13 -7 4
317 2 0.06958909765646841 -1.1408385226184083 -12.031642614640193 -12.150402872572396 -13 -7 4
3980 1 0.01365551146702747 -0.9442406641953748 -11.331970241811186 -14.632833133694804 -13 -7 4
3973 1 -0.01815301048650038 -4.557185611716648 -11.251334621970564 -12.54067848210674 -13 -7 4
307 1 -0.04014872350618723 -6.711069476313698 -10.201940128278759 -8.968795181130785 -14 -7 4
318 2 0.2782662446628939 -0.08556447654172837 -8.958935377283451 -9.173471780372486 -15 -7 4
3982 2 0.04311176928344905 -0.313236356783933 -10.8752928777947 -13.778911626595859 -13 -7 4
3376 2 0.03186063417680059 -1.614323329208752 -16.574469414521324 -16.51830446497834 -15 -8 4
1335 1 0.002136046236220577 -15.453365910123425 -14.694437267170045 -3.0758608545495747 -14 -7 4
1273 1 0.001821341148689336 -14.371061366114676 -14.75474855781822 -3.964429002009849 -14 -7 4
1274 1 -0.02582315528596547 -13.307297793312372 -15.721773353664366 -3.6848244216047354 -14 -7 4
1339 1 -0.02471475767723988 -14.026072189032737 -13.709171047211704 -5.075982353611205 -14 -7 4
1334 2 0.06311212901133273 -16.183006633065826 -13.88401896673902 -3.0813030402476196 -14 -7 4
1338 2 0.07202078310570362 -15.063959502577282 -13.392610261056262 -5.340407532687425 -14 -7 4
1276 2 0.2631139003299017 -12.698317844683162 -14.296198835233355 -1.2708676394580238 -13 -9 5
1275 2 0.04721500149742033 -12.352202907269367 -15.765257871769068 -4.241905880183317 -14 -7 4
1795 3 -0.6468049690376805 -12.642266280911867 -13.420134183306594 -0.8803949850198115 -13 -9 5
1342 1 -0.02875107169723668 -13.202563705610531 -12.529262842167581 -4.3952885318766075 -14 -7 4
1341 2 0.02395917580880225 -13.480997388154988 -14.324598933091403 -5.861088651050942 -14 -7 4
1863 2 0.06971384945109416 -14.832720032092016 -12.201367483260242 -1.603608076921477 -13 -8 5
1340 1 0.2409874352394825 -13.976234449940037 -11.398973689409818 -4.12848973758935 -14 -7 4
1344 1 0.001846996648830139 -11.939857679267947 -12.815060371358888 -3.8617330002491768 -14 -7 4
1345 1 0.01389047790686869 -12.027392948408282 -10.759117695884296 -2.8525465312445233 -14 -7 4
1278 2 0.01266513177037057 -11.276125171154678 -15.327117701013552 -2.155202946456504 -13 -8 4
1346 2 0.0653340997263971 -11.484212580249702 -13.784918567534616 -4.078210545186343 -14 -7 4
1336 3 -0.6385243521862289 -15.466810748953844 -11.37567770281813 -4.494228052789895 -14 -7 4
1343 1 -0.05641846532232365 -13.389973195417863 -10.503604767775434 -3.228456442844555 -14 -7 4
1347 1 0.03008434715314586 -11.265056631398329 -11.915932045812092 -3.1083651299432766 -14 -7 4
761 3 -0.668056907107164 -11.204492189282405 -14.228143741029069 -6.243539448446708 -14 -7 4
1869 2 0.04714252165631845 -11.605064195441757 -10.046785279968802 -2.149121773974444 -14 -7 4
1348 2 0.2824829532471491 -11.903898006841803 -13.763030629076875 -6.592526072056298 -14 -7 4
882 2 0.04770391923043359 -14.624834545976451 -10.180651703311872 -6.799914868544979 -14 -7 4
764 1 0.2503751258854929 -10.209254755644379 -14.248771815379131 -7.439835963726946 -14 -7 4
1350 2 0.0446380208211422 -10.327352102546959 -12.987595050158973 -1.6780241831337506 -14 -7 4
1349 1 -0.01844422380932008 -9.939045029188446 -12.148343069431313 -2.3895032004224896 -14 -7 4
892 2 0.02573435871096908 -12.44415961750968 -9.764806642853804 -5.679892938140774 -13 -9 5
1933 1 0.00444429900630295 -14.324769559000998 -9.462328921827527 -2.669643184819262 -13 -8 5
825 2 0.2913281564453341 -10.086615201085825 -11.57077051856453 -6.9797764970693414 -14 -7 4
1283 2 0.03046048709224997 -9.981161580026749 -14.499789220999434 -3.9140822126356714 -14 -7 4
824 3 -0.6428375764384608 -9.407386996269526 -10.968756954661949 -7.233174786555798 -14 -7 4
1284 2 0.1009104130805111 -9.744520549721212 -15.975711520770941 -5.598041447349558 -14 -7 4
1351 2 0.07465100869137598 -9.55066197380062 -11.21599316650348 -1.7792245660065327 -14 -7 4
1285 1 0.008704993283202468 -9.295609191052511 -13.741266185385827 -4.2296513571263885 -14 -7 4
1353 1 -0.04049438159959395 -9.048060970176675 -12.506787222525572 -3.5931412137380523 -14 -7 4
766 1 -0.01017668841506103 -8.94741641460715 -14.861917905111591 -7.326950366670019 -14 -7 4
754 2 0.01259600677943219 -15.249927524379345 -15.960489924852705 -7.819405360754413 -13 -9 5
883 1 -0.01570516787088947 -14.318246925375531 -9.359841530355446 -7.482876021555453 -14 -7 4
1337 2 0.3072413888362876 -15.739512445770941 -10.504443280218586 -4.261260731832868 -14 -7 4
1862 1 -0.0005922088463618524 -15.289730041568912 -11.373180785285948 -1.0264178129876116 -13 -8 5
818 2 0.003735395200738557 -12.191702755791447 -12.178032034341443 -7.962518537442511 -14 -7 4
1931 1 -0.03284272399374477 -15.114311529691463 -10.018023530698954 -1.3976976111404695 -13 -8 5
1269 1 -0.1035233398042598 -15.678874627730949 -15.74124304981354 -2.1082183789283913 -14 -7 4
816 2 0.01164470692571483 -14.460214154014178 -13.438658237555542 -7.471205426207877 -13 -9 5
814 1 -0.04209808180535637 -15.357984473262949 -13.035244427356746 -8.059809172559184 -13 -9 5
1799 1 -0.02000932570951891 -12.464122639249352 -16.37646929292612 -0.10402020264624645 -13 -9 5
1929 1 0.2633134172076602 -15.676342545835686 -9.069769477841941 -0.5527589360838202 -13 -8 5
1280 1 -0.01478228883210738 -10.56178826399092 -16.09102312949101 -1.7816230108756224 -13 -8 4
230 1 -0.04715903739427496 -12.467965597217475 -16.125892448873927 -8.156502907841865 -14 -8 5
1267 2 0.05955344406597027 -16.441637837933374 -15.718065814847181 -1.3936994587484948 -14 -7 4
228 2 0.05692519541673469 -12.429422322764513 -15.008225704743344 -7.950722899991553 -14 -8 5
1405 2 0.04292614606232836 -15.25653365406226 -9.14286712579772 -3.3200783230191777 -13 -8 5
1277 2 0.01448882902164667 -12.941795109603946 -15.987716074084975 -0.968174126169431 -13 -9 5
768 1 -0.01775542246448533 -8.744672305597962 -15.507994724127412 -5.904796770318718 -14 -7 4
1936 2 0.09030270147062654 -13.547019023211698 -8.687478959373594 -2.329691647175062 -13 -8 5
756 2 0.02722273619383073 -13.057619034959911 -16.693612237238277 -6.194004872679059 -14 -8 5
890 1 -0.03311910064413212 -12.124049157310065 -8.933786283960393 -6.241552227793398 -13 -9 5
1286 1 0.01561473120852699 -8.44096790517065 -14.125555093015123 -5.195661643513554 -14 -7 4
1271 1 -0.0608628975203535 -13.505844150936262 -16.6908846622591 -2.73167942145918 -14 -7 4
886 1 0.0007302335404218152 -13.055527665036433 -8.696931071101274 -7.45486409625414 -14 -7 4
893 2 0.04326370412384357 -11.063143515919863 -9.061842625964191 -6.58069577761559 -13 -9 5
1270 1 0.2590347473758936 -14.743471451312587 -16.74394660259558 -1.9721975970925658 -14 -7 4
1282 2 0.03737451638094303 -9.315982131999819 -16.337423901181044 -3.726364076243472 -13 -8 4
1281 1 -0.07190626094950522 -9.448408952014617 -16.611519131533353 -2.6218556349417113 -13 -8 4
812 2 0.01072715107885768 -16.504538859364764 -15.009405513672066 -6.539239611204483 -13 -9 5
1410 2 0.3252161401717584 -10.283157448846383 -8.923428833818873 -4.899113098569561 -13 -9 5
1279 1 0.004723510128393886 -10.985554621473261 -16.687334664515596 -0.6557715108194987 -13 -8 4
1855 2 0.03485272957548929 -16.024881277029074 -13.924637317599892 -0.00310040159690234 -13 -8 5
879 2 0.06405240635052535 -16.285738890444993 -9.161275995451744 -8.333579579919498 -14 -7 4
880 1 -0.05690879088110883 -15.261445358354711 -8.81731046940742 -8.382273544978156 -14 -7 4
770 2 0.06177773884363245 -7.065726408175149 -15.365162174805974 -8.193266387424112 -14 -7 4
778 1 -0.01887038119326979 -4.3575832365912275 -15.70428895945658 -5.742404718653562 -14 -7 4
1291 1 0.2338468618244054 -6.0845155323207925 -14.725437163855458 -1.1038399990295393 -13 -8 4
1289 1 -0.08568737489199646 -7.015695395459055 -13.898282478881523 -0.5218523848189273 -13 -8 4
1226 2 0.08353710562692794 -4.1684366023994945 -15.902419909766815 -2.095243175624634 -13 -8 4
828 2 0.06736487941847785 -7.1549019913806315 -9.973471245051389 -6.0682400577677305 -14 -7 4
1354 3 -0.5831897240546038 -7.891632616247613 -10.21298943699321 -3.4120132164750276 -14 -7 4
1352 2 0.2692641052789378 -7.159280837600194 -9.877067589654565 -3.927677315483467 -14 -7 4
911 1 -0.05919334474409373 -0.3178075909864725 -8.812109905663469 -5.975948132404353 -15 -7 4
1366 2 0.03838325472986003 -3.6970790232840236 -13.587449690158863 -2.9398610606725373 -15 -7 3
909 2 0.06781824220119265 -0.8731682332048317 -9.657385730340373 -5.603031005618637 -15 -7 4
1746 1 -0.02327896720431491 -4.112463168104212 -16.214122528196356 -1.055186484737792 -13 -8 4
1358 1 0.01394511916565557 -4.895968239086185 -9.273973096364239 -4.722480936974406 -15 -7 3
898 2 0.0641837356086644 -7.902521621890075 -9.030995894364018 -7.67888827522716 -14 -7 4
1360 1 -0.01749456492448327 -4.836562899929483 -11.64065346191506 -4.309084628253629 -15 -7 3
1302 2 0.07901434511829221 -1.9645590538954556 -12.689204867787947 -2.8503345218169147 -15 -7 3
1355 1 0.2446639762390521 -8.053284736570719 -11.66813668448133 -3.955145264291527 -14 -7 4
827 2 0.02023672910906687 -6.6667349469198065 -13.4282387685481 -6.4405739173963 -14 -7 4
832 3 -0.6490767026921014 -4.807903545044654 -8.789087995151686 -7.970375378162414 -14 -7 4
1296 2 0.0476945054208079 -5.317681963241836 -11.326286262984002 -1.7073994232149683 -15 -7 3
1219 2 0.2798790814409825 -6.808381544548688 -14.654435227153254 -2.8547081633157214 -13 -8 4
1424 1 -0.0438043504618099 -3.7209055885989697 -9.12981126479396 -4.005841477628746 -15 -7 3
1295 1 -0.02841981042851685 -5.036298838051567 -15.303033463398801 -0.2604667898926515 -13 -8 4
1299 1 0.0002508638933887281 -4.633537634042061 -11.625233403133958 -0.8824198245923351 -15 -7 3
1820 2 0.2877016607343678 -1.2655053231487183 -13.536608175781666 -1.2869700075539212 -15 -7 3
1363 1 0.2255852163731012 -3.0959203311011168 -10.204731063063855 -3.359400533989417 -15 -7 3
782 2 0.03893743403084177 -4.038228899808664 -15.399682775750241 -4.740315307187185 -14 -7 4
1367 1 0.2520450887324833 -2.400135755571873 -12.42673070519429 -0.2646041152271085 -15 -7 3
1172 1 -0.009615536470215052 -0.326324964732726 -16.332989476753408 -2.3639088639273234 -14 -9 5
1287 2 0.03712502464125217 -7.86136885982405 -13.393624369934463 -1.0595143341202962 -13 -8 4
776 1 -0.01085261957031862 -3.7637682079196035 -13.570615113231254 -6.807340516281038 -14 -7 4
777 1 0.001808607202459078 -3.4275215115346858 -14.886861884456344 -6.827090702444642 -14 -7 4
1357 1 -0.0123269693625797 -5.413258984356729 -10.535699405469636 -4.9052021386974305 -15 -7 3
1747 2 0.02367552508224309 -3.0935363801876092 -16.210078166972785 -0.7592501973616494 -13 -8 4
838 2 0.0160454423935137 -4.632749497724425 -13.10049292204221 -6.279067158479515 -14 -7 4
835 2 0.04663630999141274 -3.8521051272583 -10.960276638498488 -6.801714646092553 -14 -7 4
781 2 0.0141527885029101 -2.1313032401841387 -16.54782672604443 -7.51598857084874 -14 -7 4
1368 2 0.2774214955440492 -1.7109123625900375 -9.133163297228542 -2.8148268239755354 -15 -7 3
829 1 -0.01688804045512453 -6.545077596905771 -10.845705136559134 -5.820430405997944 -14 -7 4
771 2 0.04230967032458454 -8.038226514833376 -16.313063881726368 -5.820607346711424 -14 -7 4
1365 1 -0.01881973501535062 -3.1257508442648665 -12.66179288071782 -2.6849303598767356 -15 -7 3
712 2 0.05048865483403534 -1.3573221761605736 -15.169533009913938 -3.94964737348688 -14 -9 5
779 1 -0.002006823787273147 -2.361917505886302 -15.474385376380722 -7.540901540743047 -14 -7 4
831 2 0.0347651493065845 -6.0301087352170715 -11.20628624476203 -6.730547098140755 -14 -7 4
1235 1 -0.07139216206275344 -0.5427820228326388 -15.257972798386675 -3.2306989007348705 -14 -9 5
1221 3 -0.6642092193780029 -5.986567885891799 -15.01375749210426 -2.623733596776604 -13 -8 4
1364 1 -0.02996983319460489 -3.393262968874803 -12.167646003163087 -1.231186209104151 -15 -7 3
1301 3 -0.6514700707564791 -1.0322966114103869 -13.03994453985102 -0.5347739943227439 -15 -7 3
1427 3 -0.6117254192454833 -1.8497297860240853 -9.988367619650038 -2.441507675135874 -15 -7 3
826 1 -0.01245414251141596 -7.34342389337957 -13.31046169220886 -5.5626946733668206 -14 -7 4
775 2 0.04893272377228207 -5.413154258205102 -15.500149951698788 -6.045161305644665 -14 -7 4
839 1 -0.02976058966369214 -2.9901608740528434 -12.799180785470597 -7.747613212624894 -14 -7 4
836 1 0.006460610422089594 -3.457642100997709 -11.303041125354342 -7.794489958133872 -14 -7 4
1356 1 -0.03013635720563422 -7.349188637966151 -11.978212010505075 -5.106942062533535 -14 -7 4
1359 2 0.03286119288811314 -5.147327451248363 -12.679456217742523 -4.361584387034235 -15 -7 3
1362 1 -0.02487989635359411 -3.685327193460756 -11.418952133252889 -3.48667453674187 -15 -7 3
1895 2 0.0458179044690278 -0.4680592240655733 -8.8744693998029 -0.1881316784467596 -15 -9 4
837 2 0.1251057136191985 -2.644262391645948 -10.535221701083808 -8.048762510324716 -14 -7 4
1893 2 0.06074506555095515 -1.2125051293672888 -10.558905123859681 -0.16176664027569873 -15 -9 4
769 1 -0.009234841649497349 -8.01754259678936 -14.836285339103267 -8.347263192048578 -14 -7 4
1419 2 0.04283937125318123 -5.4363871469007226 -8.408549941709776 -5.195606851403616 -15 -7 3
1856 1 -0.02598186533120618 -16.22708396118771 -13.755041541193943 2.1820269906954066 -13 -8 5
2302 1 -0.06646783215558631 -15.137346423982235 -13.499027325199423 7.028995239420166 -13 -8 5
2368 1 -0.05684388800705144 -16.1940444981983 -13.558901435031917 4.61093140439491 -13 -8 5
2370 1 0.2568557927025977 -15.836151248671655 -13.043663822424104 3.43176428242572 -13 -8 5
2374 2 0.2470284001042378 -13.497378265298398 -12.632292193472441 5.253358287433643 -13 -8 5
2369 1 0.006992181121922241 -15.835599574896191 -12.721420768563524 5.919218396628313 -13 -8 5
2376 3 -0.6505896449345201 -12.90521779326749 -13.001102962179061 6.001696398298533 -13 -8 5
2372 3 -0.6403070110546967 -15.23461165306062 -11.655417614732336 3.34373186543544 -13 -8 5
1858 1 -0.009430044752242728 -15.75478959632021 -13.255011465276393 0.813707772132617 -13 -8 5
1860 2 0.2700868927199909 -14.585116155939089 -11.621540170014761 4.020947427009861 -13 -8 5
2371 2 0.03368016746251178 -15.279800464817693 -11.795780517959637 5.502832517948981 -13 -8 5
1866 1 0.003144964496682532 -11.628752009830368 -11.285207508298503 1.0321515980681817 -13 -9 5
1801 1 -0.06013802479547897 -12.08683353796165 -15.239279379453679 0.8243065240716081 -13 -9 5
1867 1 -0.02658021352394558 -11.759736208438117 -12.821596485489755 1.3762395055936536 -13 -9 5
1857 1 0.02368272774739407 -16.47590657573897 -10.730408774394503 0.9650374513470283 -13 -8 5
1868 1 -0.04511733825426634 -11.370655027015697 -10.465221829223944 2.3804413939231823 -13 -9 5
1803 1 -0.006607824562404146 -11.694238941778332 -15.555211619024785 2.134333408672593 -13 -9 5
1800 1 0.2381073054220707 -12.139608071091917 -13.809511473584385 0.4865086772388182 -13 -9 5
1802 1 -0.01122333231505167 -11.430775753279951 -13.144831754162196 2.703305260446669 -13 -9 5
1870 2 0.03225808717759106 -11.205875669616349 -12.493742891039645 3.4923531426671746 -13 -9 5
1804 1 0.01365000296161039 -11.350590968273597 -14.521997442433186 3.0405355642129392 -13 -9 5
2312 2 0.08069804867185593 -11.707820553737067 -14.542546814901526 5.100164218024568 -13 -9 5
1806 1 -0.05282737490234819 -10.907582533224751 -14.940305262657311 4.499714549804331 -13 -9 5
2380 1 -0.009624039987771657 -12.488166692288365 -9.886437685026372 3.1012312792489447 -13 -9 5
2389 2 0.04324084319099326 -10.408458376370351 -12.260243709061363 5.102702690351695 -13 -9 5
2386 1 -0.01427587309718379 -11.056286137385039 -10.226267942430098 5.103706063654531 -13 -9 5
2377 2 0.09120522758398755 -13.388677060745726 -9.546900511239691 2.5696518696672754 -13 -9 5
2382 1 -0.0006738731377353667 -12.304462165081596 -9.807489307870364 4.487866407906463 -13 -9 5
1871 1 0.217737896175454 -10.128766342688033 -10.531509009768113 2.941277762469873 -13 -9 5
1874 1 -0.06084223353672976 -9.923109706171626 -10.334981116580954 4.319992436228103 -13 -9 5
1808 1 0.01888957689929426 -9.54642926850075 -14.195586036019902 4.510221189727379 -13 -9 5
1875 1 -0.006889989114731526 -9.510496198263242 -12.831234056890386 4.824245257906521 -13 -9 5
2303 1 0.2759330259968157 -13.763464144666967 -13.6173735345743 7.055800526579478 -13 -8 5
1859 1 0.03037035809928258 -15.791150730500364 -11.724363353156965 0.26433281959530214 -13 -8 5
1928 1 -0.04799305871448513 -16.45043217565269 -9.396916684097542 0.46979062648276154 -13 -8 5
2388 2 0.03689300186284437 -10.898470015819715 -10.264302744755357 6.125117213221022 -13 -9 5
2309 1 -0.0134992730491032 -10.055319633096195 -14.112846684274274 7.331820701524579 -13 -7 3
2308 1 -0.01958047306597167 -10.53577621281607 -15.41574430408992 7.096541099402035 -13 -7 3
2306 2 0.02864640975518155 -11.62682435772589 -15.549185072991007 6.910811954262105 -13 -7 3
1864 2 0.0399435266288331 -12.55253702802253 -10.799553532104838 0.5647399120121915 -13 -9 5
2383 2 0.03350853493371401 -13.484571228416575 -9.786825345200203 6.173519852063918 -13 -8 5
2310 1 0.003082568309883117 -9.590376934148408 -16.45449108667543 7.074122632664694 -13 -7 3
2848 1 -0.003751441406270165 -16.029462588829187 -14.272528729493635 7.891447096767929 -13 -8 5
2307 2 0.05007799109935693 -10.847283390213594 -13.319551758576052 7.313409943484363 -13 -7 3
1873 3 -0.5865257216987173 -8.876876819913587 -10.876231230266745 2.0055025859941567 -13 -9 5
1807 2 0.06408337915356034 -10.786195862605128 -16.012411834519636 4.753313009914775 -13 -9 5
2442 1 -0.007115541406543364 -13.547476261255332 -9.227742091762043 5.221893928704076 -13 -8 5
2384 2 0.03323338854309391 -9.185570799081406 -11.60483704982884 7.876211170678263 -13 -7 3
2311 1 -0.02715670376429115 -8.728499004768883 -13.82770138133959 7.727003152177597 -13 -7 3
2387 1 -0.01530406534176033 -8.541740424155751 -12.354981204023462 8.338096160228389 -13 -7 3
1876 1 -0.01346162765575133 -8.466884786206442 -10.61797804834477 4.957004574108428 -13 -9 5
2392 2 0.05083598591562914 -8.578064750410707 -10.605461128835817 6.036264477904685 -13 -9 5
1861 2 0.04947783923975022 -14.687562703927084 -13.39019970828294 1.068620205632429 -13 -8 5
2378 2 0.1028549949500101 -14.457351230441013 -9.40712813261572 4.645048349577509 -13 -8 5