LAMMPS data file via write_data, version 2 Aug 2023, timestep = 2700000, units = real

2345 atoms
3 atom types

-16.76558630273882 16.76558630273882 xlo xhi
-16.76558630273882 16.76558630273882 ylo yhi
-16.76558630273882 16.76558630273882 zlo zhi

Masses

1 12
2 1.008
3 15.999

Atoms # charge

1669 1 -0.009325557703569159 -15.467618668971502 -10.400084425262335 -15.243030873944452 -14 -8 4
1673 1 0.02629610621081713 -14.921936885142365 -11.482151452906479 -15.23449902039881 -14 -8 4
2934 1 0.00198968399922194 -12.216920004274632 -14.00102025294322 -9.558586409582043 -16 -9 3
2867 1 0.008718616837075437 -14.07143864279073 -11.141038357417221 -12.750764811386597 -14 -8 3
2868 1 -0.02120566540108237 -12.711178849909892 -11.564132600255453 -12.320741229498232 -15 -9 4
2813 1 -0.01272900030379875 -11.21235487058406 -14.779760892285605 -11.587158368237052 -15 -9 4
1675 1 -0.001504445906872053 -14.255050858954966 -13.899527755619449 -16.532507310204398 -14 -8 4
2869 2 0.01605883193196722 -12.289977530725249 -12.31160969895207 -12.89154401254785 -15 -9 4
2812 1 -0.0005008123611825732 -12.006116634003027 -13.77038573964471 -10.866892736621251 -15 -9 4
2809 1 -0.005166855060566366 -12.367070822288445 -12.385301553703046 -11.09424269113035 -15 -9 4
2814 1 -0.001851981885501446 -12.478551124299305 -11.839920472095738 -9.552411811131766 -15 -9 4
2863 1 0.008595367954889847 -15.270970148682887 -11.065362951195082 -11.903165298107831 -14 -8 3
2864 1 -0.02750938489615578 -14.28969220752476 -12.137826896604869 -13.865368172930943 -14 -8 3
2866 2 0.01267346705756435 -13.300567209652538 -12.64148387701791 -14.234502566296156 -14 -8 3
2865 1 -0.000629295450016755 -15.262154823224053 -10.131778582578349 -10.67019851168422 -14 -8 3
2808 1 0.002717799621911373 -13.652730015150722 -9.84843732230377 -10.35083633289421 -15 -9 4
3322 1 -0.004329947508050747 -12.796383257842509 -12.977591374095663 -8.769943786801207 -15 -9 4
1668 2 0.04840718179749107 -15.292533343948675 -10.01693943213364 -14.114910842253632 -14 -8 4
2800 1 -0.005231433126853618 -16.434441970741137 -11.898076123375363 -12.207283553079062 -14 -8 3
2872 1 -0.004067221739125338 -13.363068435621356 -10.658587227452573 -9.177770613207597 -15 -9 4
3242 1 0.001636315871295174 -16.067590026894674 -16.13793094007016 -10.056844359866426 -14 -8 3
2315 1 0.03471562200572274 -16.082261945351476 -9.13401217382916 -10.16963519487447 -14 -8 3
2742 1 0.002779475139078395 -12.313523203120376 -15.481235738750133 -8.961120122900029 -15 -9 4
2801 1 0.01529162000865575 -15.797245208075879 -12.488022045370231 -13.434340140527393 -14 -8 3
2810 2 0.01611651325045654 -11.16287275110059 -14.625282564645161 -12.75410331319656 -15 -9 4
2740 1 4.61561793763561e-05 -12.09809487517264 -16.54226888774462 -10.16742536828098 -15 -9 4
2743 1 0.003698675169271731 -11.317887639345907 -16.163987482128118 -11.546425851575684 -15 -9 4
1731 1 0.06316598233498913 -16.00133686609696 -10.089331515062936 -16.529800765131295 -14 -8 4
1737 1 0.03496069692263978 -14.368550135457998 -12.374782524795224 -16.374613447154044 -14 -8 4
2795 1 -0.004291541766689257 -15.891330206114501 -16.24497784877074 -12.92777421182933 -14 -8 3
1676 2 0.01385133912658389 -13.364137140713218 -14.471848209348995 -16.155682690292664 -14 -8 4
3830 1 -0.01384224795243487 -16.263859798030197 -12.191009168595565 -8.84654712354728 -15 -9 4
2799 1 -0.004192444880737084 -16.302386372046787 -14.790146594823113 -12.92097734292561 -14 -8 3
2811 1 -0.00842595967228197 -12.86146387286451 -8.830150994663452 -10.439567001632728 -15 -9 4
3315 1 -0.004955359175297236 -16.55713923869789 -14.300686581478804 -11.458953324523433 -14 -8 3
2097 1 0.0003457101870894402 -8.42860839370996 -16.6081699791931 -14.150935135573022 -13 -8 3
2794 1 -0.0008821607639831891 -15.488795853713347 -16.719393826760157 -11.383576004081107 -14 -8 3
3831 2 0.01956433988350066 -15.16660122393635 -12.246459089857526 -9.371870879724234 -15 -9 4
3316 1 -0.001501452229420858 -16.68790617217433 -15.020342330445528 -10.20901588307577 -14 -8 3
2900 1 -0.009326101608190109 -2.4380209118504728 -10.517302552925328 -13.611164949790519 -15 -8 3
2901 1 -0.01444884797536777 -0.9215256884246229 -10.805621224325211 -13.673042708640406 -15 -8 3
2826 2 0.01796205324798069 -0.3346605482659795 -9.737506738664209 -10.22315575126927 -16 -9 3
2832 2 0.2559739498363446 -2.601950544338048 -8.853925442267233 -16.330698694309746 -16 -9 3
2845 2 0.02001977586997092 -0.9466176913209422 -11.923572274654989 -14.284304373173617 -15 -8 3
3379 1 -0.006878123165745008 -8.00296534519959 -8.620251012807353 -9.667775433521003 -16 -9 3
3844 2 0.02148616860132304 -5.376291851650317 -11.719006143157763 -13.915573671929947 -15 -7 2
3781 1 6.418966340231494e-05 -0.9655101987028957 -14.972966129192407 -8.407092809134523 -15 -8 3
2746 2 0.01798821588454014 -5.623310469132607 -14.45450160183907 -14.453281202030231 -15 -9 5
3355 2 0.01913210389737632 -5.147641189229595 -9.432525749422378 -12.59426667807007 -15 -8 3
2839 1 0.02014682818063222 -3.1880872543580545 -9.240434440092464 -13.724127430176047 -15 -8 3
3354 1 -0.002548109434296467 -4.420614177930028 -9.069777990270724 -13.22605942659075 -15 -8 3
3775 1 0.005367028085400932 -1.1444212037982406 -15.429268242264932 -12.160507282516138 -15 -8 3
2818 1 -0.008114561147329245 -1.9901198173000942 -12.856931299075837 -13.113741445111247 -15 -7 2
2747 1 -0.001717586898482143 -4.137330025094099 -13.757098133539637 -13.94599111558152 -15 -9 5
3267 1 -0.02026939399669694 -1.8949816032563653 -15.317021322626049 -13.258423577390708 -15 -7 2
2748 1 -0.01800436231950851 -4.560580392395006 -14.993299620099307 -14.64082461480734 -15 -9 5
3268 2 0.02075050227134293 -2.278465429481658 -16.28924052828275 -13.742210467907631 -15 -7 2
3776 1 -0.02280212450225387 -0.46735646670344 -16.000676847501868 -10.878336531323713 -15 -8 3
2749 1 0.004919366545115621 -2.7951559840884355 -14.074558175367224 -13.536293248807002 -15 -7 2
3336 1 0.004580795852646934 -3.0062166492069755 -11.851620761129226 -13.645491039791859 -15 -7 2
3337 1 -0.01812630029708889 -4.363468113508002 -12.355833409805637 -13.66638255441534 -15 -7 2
3779 1 0.003210922040314854 -1.1290060218751714 -15.913443070291653 -9.529486124087015 -15 -8 3
3266 1 0.001322108084622353 -3.6054122663830364 -15.57571010117152 -15.25634733155724 -15 -9 5
3783 1 0.004158461472357697 -0.8263970739945844 -13.567057478061303 -8.686857698220248 -15 -8 3
3206 1 -0.006875363599642262 -2.905407497236244 -16.142314800721152 -16.18924150192612 -15 -9 5
2844 1 -0.002293328903520568 -0.027189105454252897 -9.873937552239052 -13.926434174331755 -15 -8 3
3255 1 -0.004366308477735323 -13.212584067799195 -13.186068388746037 -6.295564423274339 -15 -9 4
3190 1 -0.005506122538458249 -12.127043990495425 -14.301792541109203 -6.342294195377118 -16 -7 2
3752 1 0.004243349531880779 -14.3073607678575 -13.054306609131913 -5.3143530754068316 -15 -8 3
3312 1 -0.002475227509938008 -15.686738912152913 -12.590816583610952 -5.696417849433045 -15 -8 3
3187 1 0.00149030356653657 -10.851567731965266 -13.884416890349113 -6.071814123247085 -16 -7 2
3193 1 -0.01983837671377998 -10.442552326205508 -12.6174659985903 -6.6880567298224936 -16 -7 2
3310 1 -0.004339320833709831 -14.549075774968458 -13.513076303781844 -4.07684559237632 -15 -8 3
3309 1 0.01009680976054959 -15.757255998205444 -13.273147898387581 -3.367979952067767 -15 -8 3
514 1 -0.003220359739905667 -9.871862262706436 -14.531265317156414 -4.8229493731935715 -14 -7 3
193 1 0.009621471542352957 -8.998663918861917 -12.524556699287741 -6.92360473507158 -15 -8 3
3819 1 -0.02546818629966766 -16.181171203318108 -13.641588695862765 -2.237455161142458 -15 -8 3
773 3 -0.4948395241509914 -12.03634370439372 -8.476888384032891 -2.973492752620801 -15 -8 3
250 2 0.0240780993577129 -11.422661057474485 -9.44753996090927 -5.789433231488675 -15 -8 3
506 2 0.02787875723561516 -14.073954600508198 -15.934245589656518 -4.5811432943976484 -14 -7 3
3885 2 0.02226220324604461 -15.908708814372023 -14.279870738094429 -1.5403472167504504 -15 -9 4
701 2 0.03634187454432035 -10.579713024152362 -10.949521732811016 -1.53816971689214 -15 -8 3
3308 1 -0.002608451525299343 -16.355683188546987 -12.243605645005509 -4.386273442118468 -15 -8 3
2932 2 0.02531887177557311 -11.316672031435703 -12.015194954009102 -6.444427206073449 -16 -9 3
3646 2 0.03055780741427833 -9.163949182776971 -10.149469018958872 -4.879638395280372 -15 -8 3
57 1 -0.001538824845265834 -10.521737612222438 -15.590649969448931 -4.023406899553176 -14 -7 3
1 1 -0.001048275916707328 -9.445064409204159 -15.783956485189838 -3.118603729639902 -14 -7 3
3313 1 -0.001842395872851933 -15.931656799115363 -12.312938836736913 -7.021833343615307 -15 -8 3
703 1 0.002943379054851397 -11.132556304592951 -10.648960466500801 -0.6948961448354652 -15 -8 3
55 2 0.02114960375379971 -12.375934764555582 -14.746267251902838 -4.149029369824181 -14 -7 3
53 1 -0.02208271415237376 -11.793681968132287 -15.748110443033777 -3.723960391478203 -14 -7 3
572 1 -0.02619481934506754 -13.954318209060286 -16.498412113402477 -3.7834803547814575 -14 -7 3
636 2 0.0182665495541734 -10.824079103874041 -12.891793509639935 -0.17457298666704435 -15 -8 3
3254 1 -0.001375803137124341 -13.205710653456547 -12.363744381982169 -7.43166311051214 -15 -9 4
196 1 -0.02235943871146405 -8.419398535090933 -11.340990683729254 -7.462036144104454 -15 -8 3
706 1 -0.01627364184608709 -11.650077170155633 -9.246976450825803 -0.4941742278613112 -15 -8 3
60 2 0.03794299849694391 -8.744250631844205 -9.775757019393485 -3.226976894874219 -15 -8 3
2253 2 0.02498980365346656 -13.958991740514724 -10.306338601719172 -7.272296385803345 -14 -8 4
1036 1 -0.01567403310408008 -9.517191608312542 -15.88389329046979 -1.4936424740293937 -14 -7 3
3253 1 -0.02245891166823316 -13.431306041482708 -10.992557990778318 -7.902518747649158 -15 -9 4
3252 2 0.02150179756405044 -8.707551984308555 -10.319473027345822 -7.83559002994456 -15 -9 4
447 1 -0.001431154111071201 -8.45351568816106 -14.789335445946808 -4.664180503234161 -14 -7 3
2791 2 0.01642349913913865 -13.152654034255102 -16.461597402194325 -6.7451235174977136 -14 -8 3
62 1 -0.03715900390090398 -8.493991553461152 -9.525404195204434 -4.241199088647146 -15 -8 3
452 2 0.01665396183138032 -9.990833906376508 -14.847713956592516 -1.2001907221842463 -14 -7 3
3188 1 -0.01057635075449543 -12.385638479074975 -15.41763382176308 -7.402465262181572 -16 -7 2
249 1 0.07219705087514316 -11.834299533347117 -8.43778883605608 -5.7271811545975515 -15 -8 3
3381 1 -0.008302439712338116 -7.706747807347802 -8.59535006614481 -8.1728886159748 -16 -9 3
3778 1 0.0007377733599973069 -2.7906166503013297 -12.050278681955211 -6.86706408663714 -15 -8 3
64 1 0.01495711814902686 -8.109712993908001 -8.405957938279364 -4.5835132119836235 -15 -8 3
3835 1 0.003759765031636268 -4.259567476651502 -11.838677360277721 -6.503313355502239 -15 -8 3
3706 1 -0.001831728549543058 -2.052542542487246 -11.080795987341144 -7.773781073642899 -15 -8 3
3260 2 0.02484321426310955 -5.288043092797369 -13.96115043084105 -6.7905275246726156 -15 -8 3
3834 1 0.001721508595371332 -6.99655259572404 -11.373951105863608 -7.361634171302998 -15 -8 3
1035 1 -0.000998120042392886 -7.811311651858288 -16.31521096035227 -1.2098605971109924 -16 -7 3
3705 1 0.001141739474753593 -0.6983824955027877 -8.546052142580244 -8.057133616824629 -15 -8 3
3704 1 -0.003370262421678573 -1.4268183163476484 -9.782504669334429 -7.856510943073566 -15 -8 3
3780 1 -0.0005281798830021334 -1.7719448504698594 -12.429339454713356 -8.016788045832094 -15 -8 3
3771 1 -0.01862872881295 -5.25822836574466 -12.936543819410721 -6.512628021856752 -15 -8 3
3905 1 -0.003953313752849699 -5.9585482590686105 -10.348418547109928 -7.243195985304593 -15 -8 3
3378 1 0.0005821550035562126 -6.345775326964351 -9.015714565192862 -7.572603015773487 -16 -9 3
3904 1 0.002158016075330657 -4.057396461953872 -9.094005364980035 -6.423999429856068 -16 -9 3
7 1 -0.0005501033863611372 -0.6260150227643708 -15.4462738609802 -2.1995389023603056 -15 -8 3
8 1 0.000226550487429443 -2.7533509202373345 -15.368365748942345 -2.6307229778799175 -15 -8 3
450 1 -0.001051562400985317 -6.957199193118978 -16.02443350640428 -2.1968047300542883 -14 -7 3
3199 1 -0.000213052449520296 -1.1038972066005077 -16.255837601960657 -4.630115126854217 -17 -8 2
191 1 -0.0006429898187545469 -7.567947511959096 -14.671774168503106 -5.866673415084731 -15 -8 3
3907 1 -0.002106506772232376 -4.63374224838711 -10.409851163767508 -6.722438643549561 -15 -8 3
10 1 -0.01978828088402709 -4.455479875826789 -16.41534261550225 -1.2498562638507538 -15 -8 3
3765 1 -0.001123686644536669 -2.304561307218292 -16.386528233820243 -6.7897356558494675 -17 -8 2
448 1 0.001016276703207426 -8.101214125725082 -15.628622351464058 -3.5229022451654726 -14 -7 3
3699 1 0.001374795262195149 -1.3328910090416561 -15.472519842192057 -7.0333544486580974 -17 -8 2
3770 1 0.001189913788479619 -6.603046556114519 -12.562626015285108 -6.644085859941509 -15 -8 3
188 1 -0.006214942094835946 -6.4086063467386705 -15.654855938656711 -6.260484230612137 -15 -8 3
9 1 -0.001033597660096055 -1.2789897137430621 -14.776366149330139 -0.9043898576598842 -15 -8 3
192 1 -0.00237585634470161 -7.8758782335661985 -13.551318910278791 -6.643691449948819 -15 -8 3
12 1 0.004145809859052177 -3.604632862287869 -15.164838307935653 -1.314436457635135 -15 -8 3
6 1 0.003017189362767445 -5.7739904994984474 -16.18736578568165 -1.862959828508519 -15 -8 3
3138 1 0.002332663391422886 -0.5767672878672622 -15.207242908748762 -5.678077965172483 -17 -8 2
13 1 0.0003782668980864684 -2.6581329418617323 -14.526478152103055 -0.2892861058326532 -15 -8 3
5 1 0.0003726444265999135 -1.578465970801577 -15.454469182005797 -3.3137841363553306 -15 -8 3
687 1 -0.01937032898025834 -13.715922682692243 -11.369509215885204 1.6258564140427323 -15 -8 4
689 1 -0.002943343296727727 -15.164409077699625 -11.958271379712318 1.7792492908219295 -15 -8 4
622 1 0.00161095498670989 -13.160009616796371 -10.924953118528231 2.8084080844487618 -15 -8 4
641 1 0.0002797283548651962 -12.611200542214705 -11.283654427988415 5.00141915687391 -15 -8 3
707 1 -0.005250623203065663 -11.600098498710388 -10.842443951920888 2.8458502359051914 -15 -8 3
1162 1 -0.0004717066031691974 -11.004912412953022 -12.24464735079869 3.1376768731624622 -15 -8 3
132 1 -0.02426950354816952 -15.201584440383694 -11.111267866764399 4.233750273088488 -15 -8 3
642 1 0.000187851565956243 -13.793495648487209 -10.81293996539453 4.254367450616367 -15 -8 3
685 2 0.02600392788766649 -12.893705807022489 -11.558479437889252 1.0587703964690172 -15 -8 4
639 1 0.001864712193777953 -11.39421932067741 -13.08698557695184 4.414733584517295 -15 -8 3
624 1 -0.01559589299843184 -10.488007647726052 -10.061770476782447 1.6632739649620247 -15 -8 4
638 1 -0.001503085104662922 -12.254069636921882 -12.661641392861744 5.354014905512137 -15 -8 3
1157 1 -0.0179185622515068 -10.824272124224551 -14.441438056827812 4.2101252265369675 -15 -8 3
640 1 -0.002693848873903747 -11.452735384478299 -10.434725086640244 4.306908547456657 -15 -8 3
1163 1 3.46431944603931e-05 -10.518045487546246 -13.083204819148923 2.1502503712385574 -15 -8 3
1094 2 0.01874962106048296 -10.972970353034908 -15.220665325490192 5.040815816544039 -15 -8 3
1160 1 0.00187597905411381 -10.879012012293282 -14.53584209919763 2.6462369540912998 -15 -8 3
637 1 -0.02145140334177432 -10.497473678100658 -12.418581131696218 0.8006330786348657 -15 -8 3
704 1 0.002629997084674252 -10.708497637551716 -11.160705175978908 0.6341025794799923 -15 -8 3
134 1 0.0008896025616560018 -12.063151706299378 -9.224341352391843 4.97575403459953 -15 -8 3
623 1 -0.02025961568430065 -13.157511825814513 -13.699152534732098 6.37992390937465 -15 -8 4
702 2 0.02177538323164493 -10.239012778891919 -9.668011132899675 2.6729946977809043 -15 -8 3
708 1 0.002078092630150168 -10.989751693221814 -8.978392260292622 0.769235676775996 -15 -8 3
131 2 0.02244337469921405 -13.127683057460686 -14.264727878538476 5.48441672250887 -15 -8 3
1104 1 0.005415289629134661 -11.92861737718479 -9.602687542625658 7.599495105002938 -15 -10 4
688 1 -0.00869982111637985 -16.15993769929113 -12.617208224938468 1.1410811288350347 -15 -8 4
691 1 0.01734412183624528 -16.013089265004496 -11.652569930775458 3.1957285164030984 -15 -8 4
628 2 0.02426581236094791 -15.47886642756325 -11.293672148848655 5.157775244786817 -15 -8 4
1158 1 -0.02050387509231695 -11.698404300189736 -15.462888545904168 1.605569916752139 -15 -8 3
1551 2 0.02012205461373902 -13.726133543244622 -16.63618910134847 6.3063603820480765 -14 -9 4
1092 1 0.002058243340770927 -13.006624479466971 -15.933439684799064 2.008305992103279 -15 -8 3
1095 1 -0.002035050557879208 -15.345595592396718 -15.889310426183542 1.7708700672919782 -14 -9 4
1093 1 -0.001318855631434177 -14.145628535355115 -16.484254355941943 2.48256093171112 -14 -9 4
625 1 0.003040305802045146 -13.017205252357714 -13.712041288522444 7.792142531304515 -15 -8 4
135 1 -0.0005331424031685406 -11.817658484701383 -9.025245618701979 6.342407387885349 -15 -8 3
1096 1 0.0008018493948054421 -16.453302900233844 -16.722036217334637 2.4820696808877116 -14 -9 4
1549 2 0.02104211407847211 -10.995098395931524 -15.626529441890835 0.821952434212421 -14 -9 4
559 1 -0.005194009465364968 -15.456837374842426 -16.452651321425606 0.5825235986106206 -14 -7 3
686 2 0.02110062024695415 -15.885194263125115 -12.972808213821375 0.19916977182465692 -15 -8 4
133 2 0.01974616271974717 -9.869710244457433 -9.981584556974239 8.21916685637259 -15 -8 3
1566 1 0.002392759406620759 -1.951469200945932 -13.869818218593206 6.990832843843512 -15 -9 2
593 1 0.0009364035041121155 -1.7205712036427478 -14.802009362270727 2.067221275846168 -15 -8 3
590 1 -0.0006462803000434197 -0.42470148688839593 -14.749624114188721 0.14879460403412437 -15 -8 3
1625 1 -0.01375006645624309 -6.130892685915238 -16.533956733122366 7.978115513200735 -15 -9 2
1565 1 -0.006797401375400906 -0.6725178648831442 -13.06414929279257 6.820388908115952 -15 -9 2
1046 1 -0.002125112141453819 -0.6814990927371068 -13.51779442264445 4.297126700931099 -15 -9 2
592 1 -0.02120068400153857 -2.3834642983765053 -15.441604433373492 3.299414754907722 -15 -8 3
1047 1 0.0005722548497055224 -1.8462519107424833 -14.600898299768158 4.564227655299065 -15 -9 2
591 1 -0.0001383314365125399 -0.24302583308574216 -14.499705042088593 1.6563522954664327 -15 -8 3
2037 1 -0.006783441768598061 -2.759611968841316 -13.9534047330829 8.160822852817516 -16 -8 3
1043 1 0.003872011321181834 -0.08909627610271478 -12.99132815878467 5.401950753178328 -15 -9 2
1568 1 0.003147295537567183 -3.116657237646514 -15.976726003573305 6.031793457149131 -15 -9 2
1631 1 -0.0362819010536815 -3.9684064330107245 -15.95479711886595 7.190027206792389 -15 -9 2
1567 1 -0.0007056093428820902 -2.237450979804661 -14.838104825840404 5.884529153564576 -15 -9 2
73 1 -0.005663193522846152 -2.3816193877398004 -14.740833350678594 0.9941561293051472 -15 -8 3
1569 2 0.02956531452676837 -3.585817624697526 -16.486658605359647 5.115952778176247 -15 -9 2
454 2 0.02055403161895331 -3.1827770586074973 -16.14704050485464 2.907981324944314 -15 -8 3
1630 1 0.008098223924758393 -3.8281475700437606 -14.726023392879084 8.188152157962437 -15 -9 2
1235 1 -0.001266129579283008 -13.984707801479749 -15.193545844656127 10.319427806448477 -15 -10 4
1169 1 -0.001707605691024426 -13.360802446245165 -12.905372092646036 9.041146040376663 -15 -10 4
1172 1 -0.0004957647970537243 -13.848667242490968 -13.77822762973248 10.383553754973676 -15 -10 4
2261 1 -0.004229818395138266 -13.137591974995813 -13.136220190205055 11.543720647437375 -14 -9 3
1233 1 0.001775716737334208 -12.860015825527771 -11.586075128578852 8.911986679593769 -15 -10 4
2262 1 0.002818416350860539 -13.95113518846258 -12.87031453072679 12.774084893442362 -14 -9 3
2264 1 0.002776764846812333 -11.972527082266962 -14.1085280569717 12.011515993805155 -14 -9 3
1739 1 0.005052416672993158 -13.71967199667383 -11.792663794575276 14.972076326627628 -14 -8 3
1743 1 -0.005615065188637343 -13.049522364095536 -12.396101373868529 14.07188855671994 -14 -9 3
621 1 -0.02602365854658028 -13.97313760120068 -16.482475611179996 10.316036199740633 -15 -8 4
2266 1 -0.005005990514844955 -11.638196186381679 -12.763020445341468 14.311950597934292 -14 -9 3
2265 1 0.001845128517624531 -11.553567596982683 -13.88878441294506 13.274221701143553 -14 -9 3
1748 1 -0.02093825539917687 -10.352347417604198 -12.37167030493586 15.06740710313407 -14 -9 3
1166 1 -0.0374057049882889 -14.121260011456652 -9.919983556766374 10.550441769705635 -15 -10 4
1170 1 0.003196259841017846 -13.22745987429258 -9.280368940804301 9.505965903020796 -15 -10 4
1234 1 0.001485090485387624 -11.57455743720164 -11.16794169336194 9.525954535831627 -15 -10 4
1667 1 0.255843099919363 -16.43802492335534 -13.828127163928086 15.985794701499993 -14 -8 3
2208 1 -0.00611654540309528 -8.629380044164254 -11.07428524320125 13.533669816728086 -14 -9 3
1670 1 -0.04378202294249714 -15.139688867071767 -14.59892941337977 16.23167360739082 -14 -8 3
1736 1 0.01073331060092776 -14.159405427536894 -11.31724267004548 16.235680544012865 -14 -8 3
2263 1 -0.01862585820226439 -11.577788416454478 -15.41349890053765 11.649863370224462 -14 -9 3
2211 1 0.001893418442829246 -9.52687382143263 -12.12813321441344 13.738259988508117 -14 -9 3
1237 1 -0.0005878963174741313 -11.229156404968865 -10.690668314432209 10.815387992315014 -15 -10 4
2201 1 -0.01656028336312407 -10.866124225608193 -16.066311195550245 12.652495904519567 -14 -9 3
2204 2 0.0166734687004424 -10.892199510110633 -12.828645113583107 15.961546399828922 -14 -9 3
1289 1 -0.01526419180440459 -14.168433237693348 -8.992414152165868 15.69608607543624 -14 -9 3
1106 1 -0.01612557608926876 -11.017108534771303 -10.170129075455085 8.529569708402656 -15 -10 4
2260 2 0.01979072643735542 -12.294375558717155 -15.57334308085306 10.810351260125685 -14 -9 3
1734 1 0.009839889651271354 -14.96973575802426 -10.037677662486116 16.140999805752923 -14 -8 3
1671 1 0.00434788556460123 -15.548798922820971 -16.162264171063303 16.199438250917673 -14 -8 3
573 2 0.02585196814238145 -11.660159500464509 -11.252132666447944 12.584215869574129 -15 -8 3
2202 1 0.005073116455064929 -10.40114134234079 -14.922492855161424 13.362656368321902 -14 -9 3
1621 1 -0.04330399218609254 -11.315083429069471 -10.283702371062406 12.16010227432328 -15 -8 3
2205 1 -0.005130064362359396 -9.698005799404227 -15.368856069450214 14.618110922000318 -14 -9 3
1236 2 0.0234878209512709 -12.080100091948504 -9.558874525357027 12.174202323012906 -15 -10 4
2269 2 0.01567561084677036 -9.190773834721274 -9.520443874641558 12.438077831467378 -14 -9 3
1167 2 0.02473627459694522 -13.665411000012627 -10.158763694507718 11.443419663173398 -15 -10 4
2207 1 0.001309983327432707 -8.76776219767059 -16.075113885466894 15.18541544385076 -14 -9 3
1598 1 -0.02345513126890599 -16.383665974760017 -15.535377050620818 14.206340358570383 -14 -8 3
1231 2 0.02592972434631516 -14.890661155442269 -9.160885626749987 10.375519369535159 -15 -10 4
1600 1 0.004441654561854566 -15.711704773668961 -16.670178140223236 14.71923155363448 -14 -8 3
1727 3 -0.5399220141284022 -16.749431166143506 -12.429796876316699 16.34970231454436 -14 -8 3
1168 1 0.0003774654296321289 -13.206110764220421 -10.243089282073447 8.461547421438445 -15 -10 4
2152 2 0.02759635502899544 -5.50685371051367 -9.918307766358867 9.089754363368165 -14 -9 3
2033 2 0.01700170511852018 -1.0617337302809116 -11.54182410179471 9.1249182471979 -15 -9 2
1622 1 0.003412008737096281 -4.913681944063839 -11.947011457920244 9.642312353888354 -14 -9 3
1626 1 -0.00912620676378105 -4.9247623426100375 -13.338523171668898 9.89124760437379 -14 -9 3
2227 1 -0.01693603053898171 -0.5589066714412935 -8.416719760232391 10.204106640118603 -15 -8 4
2212 1 -0.03807078489097282 -4.757480889673842 -10.606285725213946 9.357688786139812 -14 -9 3
2220 2 0.01761636161635205 -3.639727930740337 -8.8620167305152 9.455437804149652 -15 -8 4
2802 2 0.02129050725527967 -7.089616735443983 -15.375507718489885 9.34355861167073 -14 -9 3
2036 1 -0.0219985165536541 -0.14827999067579306 -12.170839002240799 9.030142554988068 -16 -8 3
1750 1 0.004262157640915865 -8.055679421308124 -9.82017326037723 13.269132154597845 -14 -9 3
1627 1 -0.00194481468920913 -5.026120117494912 -14.650551098463955 9.040512621619595 -15 -9 2
1624 1 -0.01709334175492977 -6.1837749277848895 -15.446772742077519 8.781647776940229 -15 -9 2
2228 2 0.01884611045761612 -0.6713776633059265 -9.544801326986223 10.223727545620777 -15 -8 4
2213 2 0.02359471131761945 -3.712314423652326 -10.304006380471392 9.836362584366368 -14 -9 3
2206 1 -0.01613404685379514 -7.690885220727968 -16.695828887332475 15.782052727148734 -14 -9 3
2735 2 0.01913482243726432 -6.913442942500607 -16.14501125500356 16.583888190164313 -14 -9 3
2403 1 0.01226864710727834 -10.445712052430716 -6.371709915013601 -14.30028852590976 -16 -9 3
2400 1 -4.473913514390498e-06 -10.571635729615249 -6.2372719328526784 -15.832256823200877 -16 -9 3
2404 1 -0.02410811082710098 -9.964323225938971 -7.341115251113086 -13.583071587421344 -16 -9 3
2398 1 0.02193618815574564 -10.899613244088243 -4.923123326156641 -16.289360278401293 -16 -9 3
3382 1 -0.007734418710102147 -10.414313544338837 -7.445882250096075 -10.01984439677228 -16 -9 3
2914 2 0.07100582836903094 -16.356867762975284 -2.3914024922023547 -13.99798258334206 -14 -9 4
2321 2 0.0159255557435717 -9.427660713562776 -8.126403449724524 -13.991482309679107 -16 -9 3
2933 1 -0.007366695554725505 -8.980358852864546 -7.871816730163646 -10.489299390920296 -16 -9 3
2402 1 -0.01856083975024513 -10.39803578498821 -5.050755443086388 -13.840743197892296 -16 -9 3
2399 1 0.252587756758713 -10.238842718045058 -4.187091076515774 -15.16374149619112 -16 -9 3
2878 3 -0.3952628956503368 -10.067108181719384 -2.833965694348375 -15.467399388116823 -16 -9 3
3323 2 0.0386534153564353 -13.546058430736194 -8.018060737002317 -9.837833399998962 -15 -9 4
2875 1 0.002048371479395657 -9.499490740254329 -6.6241191225632114 -12.476216551762585 -16 -9 3
2935 1 0.01044547567496485 -9.573335185174741 -5.22897544794592 -12.637743854744045 -16 -9 3
3908 1 -0.01529390449223302 -9.424563855796599 -3.8491279552133015 -9.961224474271257 -14 -8 3
2874 1 -0.01156369884829947 -8.563413978782005 -6.724456764878196 -11.54108108630399 -16 -9 3
3547 3 -0.6162273972335434 -15.803476785830748 -0.13864111406271032 -14.06545275083058 -15 -9 4
2807 3 -0.449114431012165 -13.423650649453684 -5.23150780163291 -16.658408879814907 -15 -9 4
3979 1 0.0008286259407711966 -10.122686705859518 -1.2761742757700758 -9.643331817245576 -14 -8 3
3981 1 0.005917805763473841 -9.621751246857558 -2.5972382609158444 -9.227813261407833 -14 -8 3
3909 2 0.03314383370701156 -10.219194440496931 -3.911590988961303 -10.899709425798655 -14 -8 3
3884 1 0.007051285881803235 -16.005506709692785 -0.12536558135509424 -10.072797270369854 -15 -8 3
3375 2 0.03015156165710776 -14.022082476096049 -0.7088494764066513 -10.23587904629193 -14 -8 3
3887 1 -0.01973500650211367 -14.853748384426975 -0.13166609995429854 -10.389989899653216 -15 -8 3
2322 1 -0.01738782042007234 -10.885045627606972 -7.494254142614589 -16.229181375594074 -16 -9 3
244 2 -0.01307753906431885 -11.53855290801926 -6.57927869436879 -8.589502248876174 -15 -8 3
1740 2 0.02506184230073726 -11.156638870241244 -8.19683191418487 -15.517334842225967 -14 -8 4
1809 1 -0.01098537573264968 -15.769253027443131 -4.887044093258535 -16.343193723081313 -14 -10 5
3324 1 0.0002219244504371443 -11.490393582937525 -8.308156246020271 -10.428426078592937 -15 -9 4
2362 3 -0.5610175656130862 -2.9589719310818228 -7.929552657642189 -16.29340068499471 -15 -8 3
3911 2 0.01499281733613608 -6.469407731703227 -3.168512668233278 -8.59351180492674 -16 -9 3
2843 1 -0.04461566554508128 -1.260826392760003 -7.069191928990615 -14.510085681849691 -15 -8 3
3448 2 0.02169877042810948 -6.746695909801015 -8.083263480202856 -12.48505597698756 -16 -9 3
3390 1 0.1559923334610885 -6.032140152189284 -4.296910626478855 -8.491959852072451 -16 -9 3
2835 1 0.006374821081364404 -3.166104177345501 -7.224202234097004 -12.835872129963281 -16 -9 3
2876 1 0.005449893052977176 -7.155219311901043 -6.327843225546371 -11.31067319352138 -16 -9 3
2894 1 -0.02454635798426048 -0.09588662797258621 -6.469509427381494 -8.946527451293147 -16 -9 3
3387 1 -0.02143794922710264 -6.404410982979282 -7.404854703379256 -11.740520902914641 -16 -9 3
2758 2 0.04009145225510115 -3.9406956856652586 -5.4501065020998585 -13.68365953014341 -16 -9 3
3400 2 0.02274874972930442 -3.1624313301124465 -4.6832686397123675 -12.334667191210885 -16 -9 3
2824 1 0.242266791106097 -1.6490736659155003 -7.2159319794819 -15.974633173263317 -16 -9 3
3347 1 0.01825573645527831 -4.408137227466809 -6.08090080805266 -11.41033716706335 -16 -9 3
3402 1 -0.05718471286401965 -4.58359559580624 -5.354301670628081 -10.198307517212736 -16 -9 3
3346 1 -0.0384282677092435 -3.5326391351344073 -5.667902230137859 -12.628299722582232 -16 -9 3
2842 1 0.0377257251121387 -2.32192532085031 -7.929039658076429 -13.824420808265796 -15 -8 3
2891 1 -0.05051071389766114 -2.6093306456551364 -5.519959873580823 -9.224276516427281 -16 -9 3
2892 1 0.02960341261589193 -1.3923614047932742 -6.003297779786177 -9.245790591461063 -16 -9 3
3385 1 -0.007435339111724858 -7.169516104366112 -5.022532067178752 -10.493691086265885 -16 -9 3
3349 1 0.002824650468441957 -4.943990035753586 -7.44716782029928 -11.334855831114632 -16 -9 3
3350 1 -0.01148802627590051 -4.038509100315935 -8.1413075960375 -12.085422267465507 -16 -9 3
3384 1 -0.007339532295133054 -8.343572770035383 -4.928577740821025 -9.588197215176997 -16 -9 3
3388 1 -0.008534526583088576 -5.939763554277696 -5.002212723529048 -9.86105351614542 -16 -9 3
2889 1 0.2534320267350639 -3.862597136514649 -5.080531985834155 -9.019694069207356 -16 -9 3
2827 1 -0.08671252802922585 -0.4754764258729546 -7.430946104655635 -16.7547438499215 -16 -9 3
837 2 0.03611237440652977 -15.684727118899714 -4.9330360683253796 -6.397853654770158 -15 -8 3