LAMMPS data file via write_data, version 2 Aug 2023, timestep = 2340000, units = real

2732 atoms
3 atom types

-16.76558630273882 16.76558630273882 xlo xhi
-16.76558630273882 16.76558630273882 ylo yhi
-16.76558630273882 16.76558630273882 zlo zhi

Masses

1 12
2 1.008
3 15.999

Atoms # charge

1595 3 -0.6035584920339043 -14.396898893414507 -12.547824595986597 -11.090124140998123 -14 -8 4
1598 1 0.2388094151175689 -12.82354974336894 -12.305586621186809 -11.047965909943825 -14 -8 4
1596 2 0.2737761424695528 -14.446612159781676 -13.190257170759992 -11.751611283335178 -14 -8 4
1601 1 -0.006897063421422274 -11.870928094040794 -14.90537716829503 -10.927979428130904 -14 -8 4
1140 1 -0.01202855518741156 -9.766083813619469 -15.15555211030112 -13.11370234147894 -14 -7 4
2128 1 -0.005111995160234226 -12.657273468013459 -16.001126430947046 -10.56490071952509 -14 -9 5
1600 1 -0.0522426249955513 -11.796088576857342 -13.478450094308943 -10.720972737873584 -14 -8 4
1671 1 0.01142709988414744 -10.991739268294637 -13.117454592498516 -9.58308597424046 -14 -8 4
1666 1 -0.09608974672370675 -12.398093965007025 -11.184618122281135 -11.034068969718742 -14 -8 4
1665 1 0.2325417235093502 -11.803548804703354 -8.908121250126268 -9.779215486691553 -14 -8 4
1661 2 0.04504871683222667 -14.195723208431135 -9.929330673031375 -12.152965960063291 -14 -8 4
2131 2 0.01177971302461077 -10.686406922037644 -14.981534145871349 -11.252986420824298 -14 -8 4
1663 1 0.02452624657401384 -13.194026243487619 -9.79862528045569 -11.535891231901862 -14 -8 4
1670 1 -0.06424798169267626 -10.345928697823021 -11.74772500091494 -9.789121053631813 -14 -8 4
1664 2 0.04337602628890734 -12.34316537047102 -9.73435926902138 -12.139663517455382 -14 -8 4
1662 1 -0.05669882243390915 -12.959140155377103 -8.929652131679932 -10.284148542882921 -14 -8 4
1142 2 0.01439849848836004 -13.043580796845 -13.905114891135224 -14.072164459240303 -14 -7 4
1137 1 -0.01689873480538289 -12.391989165299405 -13.297032096184068 -14.743388535412453 -14 -7 4
1656 1 0.01140744266599305 -16.324323662868377 -11.497326297275627 -14.588117086921429 -14 -10 5
1134 1 -0.004714540201848305 -10.952476262107556 -13.799200728428245 -14.743346386712652 -14 -7 4
1591 1 -0.02497279980017048 -16.340029689318584 -16.275333938593146 -11.389142722802328 -15 -7 3
1139 1 -0.0223492239455622 -12.752912362308562 -12.386112023752423 -15.604710573324406 -14 -7 4
1716 1 0.01761791093625958 -14.786332302605853 -9.856514970910723 -16.267856485559758 -14 -10 5
1132 1 -0.001971712226369372 -10.605500469972768 -14.853627041473965 -15.494022969100051 -14 -7 4
1141 2 0.02006181751794301 -12.14694466984185 -11.751260687722542 -16.08460855073549 -14 -7 4
1657 1 -0.001063819014208208 -15.130190460778094 -10.973773361327416 -15.53356160306289 -14 -10 5
1136 1 -0.0003945704021321474 -14.37492731540007 -12.2801023606592 -15.845051029864937 -14 -10 5
1074 1 -0.02219047649409214 -9.665698353445471 -13.773678823017725 -13.79264740804193 -14 -7 4
1589 1 -0.003450413332500471 -16.56788939839676 -14.910950332699855 -12.058684142857507 -15 -7 3
1138 1 0.02745356092315934 -8.590704817118823 -13.499085470632076 -15.06528825563242 -14 -7 4
1667 1 0.2856964169684792 -11.045030110724529 -10.881340623620671 -10.34441761678592 -14 -8 4
2135 2 0.02788909850866816 -10.631321826193531 -13.845499041084018 -8.914959644460566 -14 -8 4
2127 2 0.05190876254416375 -14.649620156217477 -14.714313363475288 -10.632447374141009 -14 -9 5
2126 1 0.002190288724918343 -13.99775584903999 -15.408286181365778 -10.01943322694014 -14 -9 5
1075 2 0.01958740339989415 -9.544350346270043 -12.865834118403697 -13.104990521639433 -14 -7 4
1727 3 -0.5389659000759244 -10.555970723950404 -9.569982230279171 -10.422816722114895 -14 -8 4
1602 2 0.01721898196426947 -11.492567997419679 -15.421911337810668 -13.108285300982246 -14 -8 4
1675 1 0.03437624469868205 -9.018944716635382 -11.49847312134954 -9.411710431727904 -14 -8 4
1676 2 0.02031476859966504 -8.703214880288177 -11.912834140059053 -10.377551661123363 -14 -8 4
1135 1 -0.01919325316568464 -10.692254471573406 -16.30503821693473 -13.227838214465374 -14 -7 4
2125 1 -0.003923874556801283 -13.836402320039838 -15.836871291967437 -8.625440401923226 -14 -9 5
554 2 0.02803414728641378 -9.085101252992386 -8.464283192642872 -16.072652555098642 -15 -8 5
1673 1 0.09019090630629556 -8.98098387230899 -10.130165947763084 -8.858695234875647 -14 -8 4
1680 1 -0.05656884627461934 -6.39974556968616 -16.732038840263765 -13.011299688320488 -14 -9 5
2269 2 0.02069794005052942 -0.6145338618164666 -9.08959004495837 -8.493183177285866 -14 -9 4
548 1 0.01242759422141491 -8.376292867497934 -11.530434971358899 -16.387947351007192 -14 -7 4
546 1 -0.05193324010752912 -7.988215351267681 -13.049658666569435 -16.035170489541002 -14 -7 4
2203 2 0.02070106317519246 -0.10405664925786232 -13.26313853041836 -10.089626442182741 -14 -9 4
2137 1 -0.003201722107837403 -7.186065194237672 -15.183770767091968 -8.66997858890936 -15 -7 2
2207 1 -0.03164256981421419 -0.6703896397431479 -12.587347862003258 -9.530537982939697 -14 -9 4
2735 2 0.01381249194936328 -1.649264820842022 -15.768545477463785 -9.269750879043942 -14 -9 4
2211 1 -0.007988214986765253 -0.30656067131424475 -11.42141253066699 -10.65233775185403 -14 -9 4
549 1 0.001659354860916611 -7.559103931696322 -10.28013120414257 -16.092348238899607 -14 -7 4
712 2 0.02770418655312604 -6.525312689158374 -9.218222104842908 -13.201989616003901 -15 -10 5
1235 1 -0.0192954638759874 -5.524240790967832 -8.828155754098717 -13.18137030860047 -15 -10 5
2736 1 -0.01222737972868346 -1.5988350754269811 -14.548918037647338 -9.062369575318332 -14 -9 4
2675 2 0.01760732113118606 -7.359724682543146 -13.356567692765298 -10.157383397295877 -13 -8 3
1629 2 0.01547352252629489 -0.6447620684137257 -9.956639173856702 -13.544142632572903 -14 -9 4
1625 1 -0.03234409126474519 -1.4901361993848568 -13.27597232137497 -15.074208952302975 -15 -9 3
2266 1 -0.001193449409474943 -2.8950185782079974 -9.622054896375118 -8.772046702274466 -14 -9 4
2149 2 0.01802528099796559 -2.738870320527962 -13.910741619654623 -13.248054039326265 -15 -8 4
2205 1 0.001085101798620579 -2.267684246596348 -12.421205822133183 -9.582326042428859 -14 -9 4
1237 1 0.005277171950595991 -5.177414187438936 -8.824397547014629 -14.580585298915821 -15 -10 5
1628 1 0.1769347974926902 -0.624128108657054 -13.679500435757609 -16.174184351541456 -15 -9 3
2263 1 -0.01740068357483877 -5.242535273245306 -11.24775548778518 -11.358428189724206 -14 -9 4
2092 1 0.009614010419336808 -4.243880165770533 -15.829282240930741 -14.253385575265796 -15 -8 4
2140 1 -0.03867969364451681 -6.2014371302225655 -16.203664919115326 -9.532299813107127 -15 -7 2
2208 1 0.001547830014242118 -0.31227888737249887 -10.085714794378104 -10.025923002346078 -14 -9 4
1674 1 0.2381948676801804 -6.502950198186085 -15.922697165467856 -15.296164025009434 -14 -9 5
1677 1 -0.05126327835118646 -5.796371829685884 -15.503100387162645 -14.068237581119577 -14 -9 5
2534 1 0.2602272928767439 -1.9084401193737546 -15.363107712097849 -16.22175785255071 -15 -8 4
1737 1 -0.02773473093479455 -7.855006471719466 -9.55330427539453 -9.099884864081448 -14 -8 4
1624 1 -0.0172908515788131 -1.208140530622956 -12.047798286868492 -14.494398620534122 -15 -9 3
2264 1 0.003724089724170428 -4.922142999828197 -10.25816201756589 -10.437322702783963 -14 -9 4
1619 1 0.007150679080213048 -6.062416936082702 -10.645413914080054 -16.484369577548247 -15 -8 4
1748 1 -0.03663746140936773 -1.3427999888524704 -9.67080534536596 -8.852351526482652 -14 -9 4
1743 1 -0.02746362305938157 -3.8578813219386032 -8.465861563024621 -8.593733396766618 -14 -9 4
1679 2 0.02728602906538075 -6.93333916450741 -10.003891043710453 -9.545499107558468 -14 -8 4
2200 2 0.01220303620781859 -4.785709671458096 -13.54286599763386 -11.448378765362737 -14 -9 4
2144 2 0.02113160699835723 -6.1068357864828675 -15.350572647469306 -10.24919738313404 -15 -7 2
2260 2 0.02190666560599634 -5.99459810574126 -11.129699184362082 -12.146283491156115 -14 -9 4
2094 1 -0.008749238243569844 -3.077183941871828 -14.96828890417466 -13.868205646967878 -15 -8 4
1678 2 0.03477802285478208 -5.560033045749662 -14.620480599585388 -13.468341441369653 -14 -9 5
2095 1 -0.04283860784891323 -2.284397106288829 -14.544032890442164 -14.98821586318773 -15 -8 4
2261 1 -0.002295559539542375 -4.939287617383177 -8.803344168129623 -10.834820363675142 -14 -9 4
2206 1 -0.006689347667704411 -2.615551956034533 -13.588693394186956 -9.396516815755918 -14 -9 4
1611 2 0.01118219990546813 -7.867956025170585 -15.394526355819215 -12.019044721676833 -14 -9 5
2202 1 -0.002643860870308993 -3.585362247945567 -11.896977869390172 -10.027773305688887 -14 -9 4
1621 1 -0.008725814414882453 -5.371341280595538 -9.74473107832334 -15.654536671630085 -15 -8 4
2265 1 -0.00105273224444509 -3.8217944043465653 -10.597838718514266 -9.494930357309741 -14 -9 4
2201 1 -0.01865184044288276 -4.565635985177181 -12.447373694580268 -11.051886924903366 -14 -9 4
2802 2 0.01950675780760991 -1.6842078747327074 -12.018391380313012 -13.493521696500233 -14 -9 4
2533 1 -0.04225202816662581 -2.497260836245806 -16.695072679993153 -16.016982054147707 -15 -8 4
543 3 -0.5013990468510481 -6.738478630570679 -14.928346156992689 -16.45332169216331 -14 -7 4
2141 2 0.02686501968309528 -5.5708117210752945 -16.596024382543998 -8.793285604374063 -15 -7 2
2134 1 -0.02490544940740429 -7.434760260207372 -13.98575198091291 -9.274685462232949 -15 -7 2
1610 1 0.007496542224785598 -7.430054823625579 -16.4201024051786 -12.007786306303938 -14 -9 5
2130 1 -0.05712473140923077 -8.271397305252274 -12.791331726275773 -8.536902920751423 -15 -7 2
621 1 -0.01682359192291629 -8.17775809134738 -8.984513060832553 -16.467435095675803 -15 -8 5
2209 2 0.01817127417286485 -0.015154179142469257 -11.751883168432121 -8.945846485708206 -14 -9 4
2720 1 -0.03072918553885871 -13.417175441354463 -12.70443819424318 -0.7036665857092088 -15 -7 2
2721 1 0.01648595323939991 -13.301140137813924 -13.664666742790432 -1.9261354135563091 -15 -7 2
2194 1 0.253675967125305 -10.695814495094583 -13.022936002056307 -5.754141483679774 -15 -7 2
2726 1 0.04733426503435585 -11.4167756319236 -14.420474708603253 -4.067562146037398 -15 -7 2
2725 1 -0.05892137371665276 -10.742673384026482 -14.30761453333884 -5.267834346242289 -15 -7 2
2723 1 -0.008910270981996767 -11.9891267382291 -14.28388418763105 -2.707692963338859 -15 -7 2
2728 2 0.03026930026488921 -11.948630954210614 -15.369921837444936 -2.5281662614582254 -15 -7 2
2198 1 0.02962236282671865 -9.630785379460821 -15.231294868684076 -6.083179864073867 -15 -7 2
2795 1 -0.00362925026555732 -12.228573288142837 -11.862644626789756 -0.9722556903239908 -14 -8 3
2799 1 -0.004143034292115166 -12.11954766128544 -10.369867490779692 -1.108262819616334 -14 -8 3
2193 3 -0.5094783544654898 -9.783035988322098 -12.207271450393877 -6.616227920761205 -15 -7 2
2188 2 0.01394825590020457 -14.335560869033824 -12.124182991188048 -0.35007596939845415 -15 -7 2
2715 1 0.01669032658291424 -14.821855554056201 -13.568244353997288 -2.429784028358933 -15 -7 2
2784 1 0.02438388834340679 -15.817752577376599 -14.275712957982845 -2.067513349578286 -15 -7 2
2724 1 -0.0430774415743299 -11.075044819963985 -13.731085008937546 -1.3889413776910127 -14 -8 3
2786 1 0.002996590805861912 -15.33310918788669 -12.179266068746086 -2.979662408262251 -15 -7 2
3237 2 0.01721436136738445 -10.029340612885694 -13.883241413959034 -1.6568085393887602 -14 -8 3
2794 1 -0.001850800026417545 -11.136116891368825 -12.476651888139129 -0.7968497321548786 -14 -8 3
2797 2 0.02562335753684066 -12.077326905250965 -10.393245095619392 -3.308276308468132 -14 -8 3
1668 2 0.04807725790466087 -10.840505696643495 -9.61466124173532 -7.655137021049265 -14 -8 4
2798 1 -0.03567340190322647 -12.704967970717236 -9.989087652942823 -2.4296166484348927 -14 -8 3
3371 2 0.02038190137249145 -13.63883960984282 -10.63352461833057 -2.588054101735089 -14 -8 3
2132 1 0.24544288633168 -8.831703153237823 -13.11924824568217 -7.377720458859695 -15 -7 2
3081 2 0.05010010925473109 -16.10870941899866 -14.193752095181067 -5.38311916590939 -14 -9 5
2196 1 -0.04965783691294397 -8.643585807682717 -14.561570965125481 -6.859160250711237 -15 -7 2
1669 1 0.01657394231196175 -9.77255446708472 -9.48304030120754 -8.006521991108814 -14 -8 4
2785 1 -0.01738875513327289 -16.380160311502785 -11.385418855116576 -3.3661775651046733 -15 -7 2
2571 3 -0.4174674733813547 -13.793062907915978 -15.64707061780858 -5.350233350946119 -14 -9 5
2870 2 0.01439232770770299 -16.087239369230577 -10.296531365171832 -3.437184071882219 -15 -9 4
2791 2 0.01765102875527085 -11.345145139007274 -14.256881124420334 -0.5879102748705795 -14 -8 3
3082 1 -0.02223827188192084 -16.43841975427003 -15.281554026229614 -5.72740985170949 -14 -9 5
2124 2 0.05513218905904397 -14.134722818352259 -15.172240915281206 -7.788194352510545 -14 -9 5
3080 1 0.2065419647376527 -15.362558615671762 -16.048302382297774 -6.056969098042843 -14 -9 5
2706 1 -0.009121406954470512 -9.533297798094084 -16.648828815460444 -6.595527211110841 -15 -7 2
3315 1 0.0006041989545085592 -11.102829239662915 -9.757787885657688 -0.22226182135105543 -14 -8 3
2183 2 0.01717794501511972 -13.265630941143227 -8.414332561337373 -6.670651568802526 -14 -10 4
1725 1 -0.04549015577827525 -12.151694226687537 -8.505849063791674 -8.349137466865214 -14 -8 4
2600 1 0.007872574003069777 -4.441953332391661 -16.646587042035684 -4.7867213771034 -13 -8 3
190 1 -0.04454326272175325 -3.095916089378153 -16.381018698821652 -0.3512121386219285 -15 -8 3
3190 1 -0.03033118256210774 -6.600773218953238 -11.539321723020405 -0.6433744772748166 -16 -7 2
189 2 0.02020782975380761 -2.7420732852557355 -16.53964186048988 -1.3796256081094815 -15 -8 3
2905 2 0.01788873519450828 -0.2539593086583122 -9.461411340541314 -3.7347381758565725 -15 -8 3
2737 1 -0.0186868770419457 -0.6769441742135937 -14.282474741033809 -7.961717441300334 -14 -9 4
3254 1 -0.06054201497961266 -7.499227869663963 -9.383396011304487 -0.8127880618469199 -15 -9 4
2810 2 0.02368888733605064 -6.354824402227358 -9.10578832446815 -6.821108308950672 -15 -9 4
2664 2 0.01671504628169273 -3.104278108634607 -15.222020151199644 -3.5686607700262094 -13 -8 3
2661 1 -0.02084483347035322 -1.158924136776291 -15.532695719560124 -5.666302194974454 -13 -8 3
2812 1 0.01110091070080595 -6.882682613273693 -8.658262637996659 -4.770576955504879 -15 -9 4
2934 1 -0.01887992568072595 -5.757761409259732 -8.798737018638853 -2.1033124375596763 -16 -9 3
193 1 0.002081239866854389 -3.7740599166854505 -10.779446282598272 -0.08354359040729323 -15 -8 3
2669 2 0.02418809925404784 -4.002020989772142 -10.362521929902746 -6.822911497017769 -15 -9 4
2204 2 0.01992003518352703 -1.3633489711906934 -10.677285861238095 -8.26776545827912 -14 -9 4
3194 1 -0.008510321254563143 -4.753338944181835 -12.670424434861907 -0.8131758911572095 -16 -7 2
3844 2 0.01807667327824279 -0.09016448383638401 -9.00275527400587 -5.464560051669221 -15 -7 2
187 1 -0.00217855611574682 -3.5321241881083196 -15.113933915266157 -0.3726821967112221 -15 -8 3
2603 1 0.002087363286180512 -5.171882142341309 -15.563503415461435 -5.656923040921629 -13 -8 3
2674 2 0.02669796087641652 -5.242101479066605 -12.924684646333635 -6.8158353754480645 -13 -8 3
2098 2 0.01753018472155393 -4.405317231459518 -13.782445226204434 -4.074080711682299 -13 -8 3
2672 1 -0.01546433138530895 -4.717159476792367 -13.108327374144487 -5.923217093148986 -13 -8 3
2740 1 -0.000629125306999264 -5.141729425975822 -10.72674367477325 -3.6575401467277233 -15 -9 4
2662 1 0.005545042488213187 -1.985881692544874 -16.528150736492965 -4.80164928416041 -13 -8 3
3256 2 0.02007232314088978 -8.040415213008934 -11.3759271591498 -2.2539051312191396 -15 -9 4
2671 1 -0.01339968180509305 -4.744530861421403 -14.202140120720113 -5.088325260608582 -13 -8 3
3192 2 0.01772135093496503 -5.339472357924425 -13.980227606761437 -1.7988315991511563 -16 -7 2
2743 1 0.007343375824380386 -4.988325896040127 -10.117869613499174 -5.171216780721098 -15 -9 4
2742 1 0.005186458420892676 -6.141359343962672 -10.188387482070738 -2.678157010567411 -15 -9 4
2667 1 -0.02508903496957003 -3.9763641989103866 -10.670796769830039 -5.904872345521332 -15 -9 4
2673 1 -0.002224359397211714 -6.134767628704866 -16.17760068556927 -6.620463411253641 -13 -8 3
2741 2 0.02281223635683732 -1.1069865639146843 -14.605367516345583 -5.336877512672757 -13 -8 3
3193 1 0.01196360896424812 -5.174995710742073 -11.443256006108417 -0.1551558416503211 -16 -7 2
2663 1 -0.02288256524203659 -3.2255634219567564 -16.24798562964546 -3.9552445050477685 -13 -8 3
2138 1 0.008319624723098858 -7.562156931576358 -15.560653125936216 -7.178640915982314 -15 -7 2
3255 1 0.001714937620943069 -7.275271643343274 -10.732049424221538 -1.7494499689452345 -15 -9 4
3191 1 -0.007718655185429187 -6.029590607025021 -13.606969177959137 -0.9912964369864018 -16 -7 2
2668 1 0.006870935477155213 -3.996059759967676 -11.984532113932037 -5.291784656312883 -15 -9 4
2666 1 -0.01110650885775312 -4.376822058662898 -11.959423474216038 -3.74236683603983 -15 -9 4
3188 1 -0.01035075549343671 -7.115101529889248 -14.306901263525011 -0.575554315904233 -16 -7 2
2813 1 -0.02047295229912691 -5.950088094889244 -9.185767208821622 -5.711537053210021 -15 -9 4
2659 1 0.005847949106076465 -0.8968744173851796 -15.533890549091044 -7.097939552491726 -13 -8 3
3905 1 -0.006416277109865465 -0.8246059491007531 -8.545267887166334 -0.09121714666776466 -15 -8 3
3770 1 -0.001351247197893677 -1.5339055673325799 -10.926301308981209 -0.16421894290788477 -15 -8 3
188 1 -0.008630008839047305 -3.6702480765104197 -13.688879545815176 -0.33059759074800465 -15 -8 3
2932 2 0.01749855548211462 -4.737190829700656 -8.581681946179792 -1.943592945366936 -16 -9 3
3771 1 -0.01774138019819951 -0.21417894093289114 -11.421807171068266 -0.018270771183878053 -15 -8 3
3750 2 0.01288867752959474 -12.678829971660129 -12.437560372934607 2.6901626843905504 -15 -8 3
3753 1 -0.01704966600040856 -11.88354343366511 -12.45247176172381 3.3689324155171043 -15 -8 3
3755 2 0.05247114797022053 -12.429741642322364 -12.893736525501954 4.416264083930282 -15 -8 3
3754 1 0.01999418367167552 -11.162050974138312 -11.163246163454446 3.4704769935389725 -15 -8 3
3758 1 -0.003267307423371019 -11.252109561041694 -10.5187748274214 2.2072856447684783 -15 -8 3
3316 1 0.01874619131821225 -11.143659210893931 -10.773914699478857 0.8615635430928782 -14 -8 3
3691 1 0.03385292099969869 -9.901268999491087 -12.946453413511337 1.4715520129792514 -16 -7 2
3684 1 0.01300914020518963 -15.465645767107494 -16.29164579581879 5.137120860899482 -14 -8 3
109 1 0.0006467475074390431 -15.634968235859935 -15.858714202168738 6.476168323381278 -15 -9 4
3752 1 0.009830639107890589 -10.703508614998684 -10.821465673624315 4.771113926313189 -15 -8 3
3309 1 -0.01013638696311588 -10.376217906310934 -10.484634373393183 6.839433220393081 -15 -8 3
3312 1 0.01176493660703687 -9.805120396417056 -9.587440589323664 5.010605378446334 -15 -8 3
3756 1 -0.02895365339585817 -10.47612598797575 -13.269247910888124 2.831942662863407 -16 -7 2
111 1 -0.01421258710039688 -14.435445218058536 -15.484193244277312 7.247708830186898 -15 -9 4
3308 1 -0.00739609417717621 -9.995469786130812 -9.229940453753878 6.363552804816053 -15 -8 3
3759 1 0.2436302876884574 -10.15028613244436 -14.255520897180363 3.7644638626501363 -16 -7 2
48 3 -0.5049903778834274 -10.465559257811302 -14.367788541858282 5.283578287078085 -16 -7 2
47 1 0.284433500252991 -10.04447656373239 -15.713816216406126 5.527773196802906 -16 -7 2
3761 2 0.01960737591912976 -11.502952451198386 -9.438633412854937 2.5210984979803324 -15 -8 3
3310 1 0.01091947711075365 -10.756260497624682 -11.557631945351055 6.011552663686944 -15 -8 3
3240 2 0.0534187982796071 -11.28543513793806 -12.33739275467276 6.470973880466541 -15 -8 3
3694 1 -0.03712664155112673 -9.222994870146342 -15.240673052079302 3.216002696210424 -16 -7 2
3732 2 0.02388113207999257 -15.164416829120537 -15.693815258153107 2.337863212306829 -15 -7 3
3687 2 0.08604522910781588 -13.481742262589384 -15.851609756692561 6.828986859495615 -14 -8 3
46 1 -0.03220963635107903 -9.991312780473473 -16.18328203084365 6.816701313175202 -16 -7 2
3692 1 0.007185578706377035 -8.807573401684957 -13.899639124048708 1.28811180846983 -16 -7 2
43 1 -0.001177289045603091 -10.055535559937057 -15.007830497131819 7.9718091456405595 -16 -7 2
3819 1 0.00519612497240908 -9.58185637284162 -11.11613919998277 8.070625901483607 -15 -8 3
3313 1 0.00984079286381033 -9.07495065708459 -8.8486071155386 4.061698098345718 -15 -8 3
3415 2 0.01304278286601683 -15.528867134336277 -10.009723022546273 5.22493302388227 -15 -8 3
3728 1 0.005805657554879275 -15.093875316637597 -9.598088007465618 7.402583938323999 -14 -10 4
3696 1 -0.02626779135865436 -9.298288566344851 -16.672499771288216 3.4244655813706215 -16 -7 2
3242 1 -0.001985696736565866 -10.64926645347197 -12.110820324253718 0.4863725631277914 -14 -8 3
3693 1 0.0133603060613696 -8.476412484774086 -15.01362695217632 2.07289275287726 -16 -7 2
3729 2 0.01055197658734433 -14.901794996579115 -10.177986093563094 6.543538366345571 -14 -10 4
92 2 0.01933853093502137 -15.101985219483797 -11.998949028136908 8.218390969668047 -14 -10 4
3477 1 -0.01906838575107106 -15.761694186808912 -8.875462341293453 4.890120011633302 -15 -8 3
3741 1 -0.0401423797350824 -14.904482480155766 -16.74420799701268 4.022209459739653 -14 -8 3
90 1 -0.006643344761596372 -16.151906746567573 -11.477671692384469 8.31326676792967 -14 -10 4
40 2 0.03854055403830143 -9.235778334827138 -14.252852627089993 7.7651374072199255 -16 -7 2
42 2 0.03186895824306123 -10.98466857952045 -14.64416176773977 8.35494025421635 -16 -7 2
50 1 -0.003871144870116482 -10.051552333025366 -16.635125728217258 4.562310175025322 -16 -7 2
3827 1 0.04866061375696063 -8.750593089020962 -8.396934331352117 3.0032666473880543 -15 -8 3
125 2 0.01995789198003034 -0.347549035291437 -15.946829881951942 0.3075473060412309 -17 -8 2
453 2 0.03328446117611612 -0.9515111329524931 -14.532055545941327 6.198582314238943 -15 -8 3
454 2 0.01139580294777534 -0.38641726172182256 -14.884349097505797 4.632568941771906 -15 -8 3
53 1 -0.01751424543746288 -5.225815446905862 -16.135869934086266 3.3547863879524726 -14 -7 3
3185 1 -0.0008458780681718427 -7.729092040428129 -13.253506707894465 0.5090302067837885 -16 -7 2
452 2 0.009229756532364235 -0.7157166885321471 -13.687295583636516 2.712380745394484 -14 -7 3
511 2 0.2534717418874636 -5.229300610130471 -12.705045166813324 1.5398133428780059 -14 -7 3
6 1 -0.04072816165430689 -0.726768555150521 -14.134785179983371 5.184426524861102 -15 -8 3
1 1 -0.008085427891259656 -3.2372227033276637 -14.621064924751328 4.396086926407586 -14 -7 3
514 1 0.1923096805157377 -4.073166733418406 -14.159833498965712 2.3944841734455347 -14 -7 3
570 2 0.04263371273649737 -5.076244044477506 -14.864467580815669 5.89247349589259 -14 -7 3
52 2 0.06255129656377885 -6.175451671825278 -15.536996404646374 2.754090188847093 -14 -7 3
11 2 0.04330684325878263 -0.3154105662266965 -11.840700172313706 4.56995071968108 -15 -8 3
192 1 0.001604969715126435 -2.7101742549685333 -11.692310287066126 0.1513888675143512 -15 -8 3
447 1 -0.03050038112887441 -2.875886892558698 -13.413106819535594 1.92045505537736 -14 -7 3
448 1 -0.006009589066463504 -1.7228336557792212 -13.326728683540816 2.8445647341178284 -14 -7 3
513 3 -0.5283865142259472 -5.467366489390294 -13.324341392013782 2.316589563802133 -14 -7 3
3187 1 0.196657212760475 -7.67302889233648 -11.779507357420682 0.39091882172706416 -16 -7 2
57 1 -0.03743690461079274 -3.9421723479990916 -15.276357948917044 3.2620588935112 -14 -7 3
2 2 0.03582041946494204 -3.517477129312637 -14.607796847315191 5.332490464181071 -14 -7 3
191 1 0.002894249023541066 -2.8862277124096978 -12.984563808557665 0.5899307780677602 -15 -8 3
450 1 0.01031400787109795 -1.9553352457537345 -13.912596235657873 4.179545095595356 -14 -7 3
3251 3 -0.4632580122461736 -8.175804442875005 -10.47270537372002 1.2974378281650512 -15 -9 4
515 2 0.01398833214746235 -7.786598367373191 -15.752178016536076 1.6616551644543738 -14 -7 3
572 1 -0.02437803450794212 -5.14617760093962 -15.974626223223797 5.973110246073246 -14 -7 3
3253 1 0.247517545301728 -7.887683659556782 -9.2999644805124 0.47494160298003885 -15 -9 4
4 3 -0.5545179288943696 -0.5762113331601435 -9.138784254083404 6.68143474965507 -15 -8 3
3834 1 -0.0004034347597308106 -1.9625842771681312 -9.679066281050492 0.1553873191339526 -15 -8 3
566 1 -0.02417178933427657 -5.133877922145233 -16.057203310655225 8.30456338886459 -14 -7 3
3260 2 0.02009057132440943 -0.07219562446678862 -12.012296073861148 0.9454709102164052 -15 -8 3
3252 2 0.02451291479377542 -3.795193762755935 -8.612313417414732 0.5897686358333654 -15 -9 4
196 1 -0.009846989390700257 -3.236259214001652 -9.5684595271925 0.44867526893821785 -15 -8 3
3 2 0.2635657748126456 -0.15734910861198806 -8.681577480556793 7.434250806890193 -15 -8 3
182 1 -0.002133478038574527 -13.675023534100019 -13.302709638695452 9.882839793218059 -15 -9 4
177 1 -0.002154503101928454 -14.064555958850823 -11.37360571675394 10.81831900815279 -15 -9 4
180 1 0.002033655597169573 -12.447040650108477 -11.161278379497045 11.197558648014278 -15 -9 4
3818 1 -0.02119520626366204 -12.324627729488778 -12.724732317502976 9.534968852184557 -15 -9 4
3815 1 -0.007926689385802922 -11.541810730803979 -11.981661142883196 10.592474628880312 -15 -9 4
3817 1 -0.02417294374216742 -10.043207949435454 -11.33363482523918 10.527453605914735 -15 -9 4
531 1 -0.02435013517782326 -12.483882827596748 -13.613814903062044 13.937599468310475 -14 -7 3
532 1 -0.0084993797687977 -13.978264712479177 -13.392071320275631 14.193157306250704 -16 -8 2
1126 2 0.0196722415863736 -12.556467272289963 -12.552528449293353 13.458766011590647 -14 -10 4
605 1 0.007517817919557059 -15.331900726059638 -11.93516681719296 15.47518638237274 -14 -10 4
538 1 -6.29940207208593e-05 -10.008036369881738 -14.524606685290289 14.63987049331557 -14 -7 3
534 1 0.003252954420037361 -11.529933427576218 -14.374739562572788 14.222940317146579 -14 -7 3
997 1 -0.001058715946474491 -14.82057997953848 -12.202275946032932 14.114600761792664 -16 -8 2
3885 2 0.0154200222593872 -9.41235233257396 -12.313974573946654 10.450233454980326 -15 -9 4
1064 1 -0.02297645027912951 -14.857191112310282 -14.44797900633262 13.785145418407412 -16 -8 2
178 2 0.02153586246134962 -9.371069007206868 -11.116842230090924 12.890349378946377 -15 -9 4
760 1 -0.03693263562445816 -9.484048546855545 -10.4201031752934 11.858848332424719 -15 -8 4
176 1 -0.04338673908777101 -11.984742822944602 -9.925855159907899 11.795857716905864 -15 -9 4
174 1 0.03170309690196497 -13.474968016156291 -9.140972178615732 11.873720945752762 -15 -9 4
112 1 0.01570215699146615 -14.855352465997738 -15.133560508940198 8.510420846677567 -15 -9 4
539 1 0.005518338138813906 -9.986026136921344 -15.19284883146869 15.907554291789738 -14 -7 3
557 1 0.002836841241984099 -9.424799113975727 -15.860644354129322 10.671030395329606 -14 -7 3
115 1 -0.03051428779747613 -13.891399808825838 -14.988893459674083 9.768381789348561 -15 -9 4
29 2 0.02886362566786635 -9.426885849585856 -11.764847361029124 15.16171568280024 -14 -7 3
558 1 -0.02398631870574289 -8.897229511235482 -14.631167555832777 11.180332797223299 -14 -7 3
1018 2 0.01502683557769868 -8.80429675266397 -13.753059795331986 10.48312908688442 -14 -7 3
542 1 -0.003162756934600282 -8.698056678207639 -14.025289258917661 14.232097046522805 -14 -7 3
547 1 -0.02424159774117617 -9.022840851883997 -12.155819666641335 16.059409278985395 -14 -7 3
3816 1 -0.006311112208316608 -9.924636759741869 -10.431187249237754 9.294902641582542 -15 -8 3
3749 2 0.04496374938941399 -12.96023113680236 -15.445767297266794 9.659888532452413 -15 -9 4
3821 2 0.01977523026941777 -12.322636863811482 -12.496931521823429 8.48887248960788 -15 -9 4
604 1 -0.04650471766738227 -16.259629863339395 -10.892644786708454 15.522118111630025 -14 -10 4
44 1 -0.01667632590699798 -9.89024298122353 -15.797733200275657 9.320417025268096 -14 -7 3
758 1 0.2204395394537929 -10.725939837018712 -9.68873860482006 12.20099273753888 -15 -9 4
1062 2 0.03283408801087698 -14.661325323050395 -15.530873943648908 13.683026556087464 -16 -8 2
1515 2 0.03219958188144868 -16.343729398807028 -15.801533186130385 11.57263471698036 -16 -8 2
1516 1 0.01059955619638544 -16.177720669072965 -14.312795940957356 13.265372302675623 -16 -8 2
181 1 -0.01783120719636602 -14.754218412502942 -12.52457581668909 10.371735777581511 -15 -9 4
998 1 -0.02878438267945037 -15.927754741071253 -11.888890970320649 13.242919096580737 -16 -8 2
91 1 -0.06233412204104073 -15.657401596687013 -10.105772712841276 8.673552437120021 -14 -10 4
110 1 -0.006494210538199978 -16.295009752410866 -14.891405306527629 8.83601862196781 -15 -9 4
89 1 0.2401134480879142 -16.515685366593427 -9.204176453761937 9.25152123681199 -14 -10 4
173 1 -0.025354345509921 -14.737023269687416 -10.165032887364248 11.625056485332227 -15 -9 4
1207 2 0.02078458163269805 -14.2123596004924 -13.738206276177177 15.96849078285988 -14 -10 4
1205 1 -0.02707118415505769 -14.737520801506243 -12.783928685274253 16.485209700688017 -14 -10 4
116 2 0.04401269398150651 -14.181493741392627 -15.376441340592846 10.813149079282374 -15 -9 4
171 2 0.03543652844828454 -15.205974107189098 -10.279464790201 12.607318705460502 -15 -9 4
1719 1 -0.0235738666976367 -14.156556273203 -8.957324327640936 16.47912463280696 -14 -10 4
536 1 -0.0155067305572579 -12.056297489472183 -15.799635629807305 14.716802088962462 -14 -7 3
608 1 0.003550819749758918 -12.019784690638415 -16.352980092438116 15.966551746816709 -14 -7 3
172 2 0.03858280590693437 -15.576427729051247 -10.160235443228295 10.910798669765787 -15 -9 4
690 1 -0.0419194862027719 -8.475709488030844 -9.325497060057462 11.594541149460685 -15 -8 4
1519 1 -0.01120104727964377 -16.736744416976002 -13.119553841457344 13.001284450542787 -16 -8 2
533 2 0.03198975238490738 -12.756283399919017 -16.14018962540234 13.81272547103638 -14 -7 3