LAMMPS data file via write_data, version 2 Aug 2023, timestep = 2030000, units = real

3007 atoms
3 atom types

-16.76558630273882 16.76558630273882 xlo xhi
-16.76558630273882 16.76558630273882 ylo yhi
-16.76558630273882 16.76558630273882 zlo zhi

Masses

1 12
2 1.008
3 15.999

Atoms # charge

532 1 -0.003314244889434503 -9.086759593404594 -12.912203275936825 -15.893399007376933 -16 -8 3
997 1 0.01787777392713716 -9.908194517608337 -11.903905675903257 -15.143071137092425 -16 -8 3
1124 1 -0.03158776859146815 -12.901621015415948 -12.187614585694746 -11.144767907400125 -14 -10 5
1063 3 -0.6167240337059342 -12.130171857647278 -14.701788880253162 -11.634157237192579 -14 -10 5
1061 2 0.2930317546845116 -12.891440697135437 -15.327510039376216 -11.723481747151821 -14 -10 5
1122 1 -0.02688349203164701 -14.265131969590959 -11.839452040117935 -12.063550363025527 -14 -10 5
1120 2 0.06481711135646252 -14.17334683448368 -12.14263943950253 -13.11039111652 -14 -10 5
1127 1 0.2918323040061395 -12.346991157446622 -13.485203698529855 -10.739164062188305 -14 -10 5
605 1 -0.0234785068499038 -9.624684922025454 -10.95690040747496 -14.157341206663382 -14 -10 5
1128 1 -0.008805312085116103 -12.497857537782684 -10.981845210440161 -10.479896227518646 -14 -10 5
1121 1 0.0001102603185581738 -14.081217411884055 -10.401244926610998 -11.933910377791237 -14 -10 5
1123 2 0.05645647455699396 -14.653938716234586 -12.450863490118135 -11.235093713640035 -14 -10 5
1125 2 0.0227899953529132 -12.917850094003017 -10.057866669025408 -10.507446582511058 -14 -10 5
1652 1 0.01318995498955357 -11.902361122181178 -11.217403779445775 -9.294276518390955 -14 -10 5
533 2 0.02566091101637285 -8.460399594907816 -13.21129380356301 -12.851933858864085 -14 -7 4
1067 1 -0.05244181798376246 -11.796846807741607 -13.438773151298019 -9.668468545128901 -14 -10 5
1656 1 0.0003632989778731763 -10.712746226135703 -9.405616572334365 -9.8499657513989 -14 -10 5
1658 2 0.02398090305976589 -9.153121074019403 -10.733813517438554 -9.16092450529629 -14 -10 5
950 2 0.02448396873085107 -8.695770715175938 -16.045201591593624 -14.034944534992663 -15 -7 3
1069 2 0.0365553194315245 -10.359006069677834 -14.978869540200137 -9.185257939518111 -15 -7 3
1068 1 -0.01289753692481437 -11.238719762645365 -14.64897570979369 -8.615189336134632 -15 -7 3
604 1 0.02106681380709687 -10.682089890251536 -10.19626382541865 -13.803671317811315 -14 -10 5
1435 3 -0.4338921193961551 -16.27288891588542 -12.464631405885928 -15.192870399984136 -15 -8 4
1064 1 -0.02130470701123473 -9.676472625137093 -14.019222682446413 -16.646197218700436 -16 -8 3
1126 2 0.02821368677125062 -8.659499945916906 -10.654249841757437 -13.814771770902722 -14 -10 5
2118 2 0.01797492277215383 -15.867910966426273 -9.877042782842318 -9.623917876911701 -14 -9 5
1000 2 0.04036322686847137 -11.874021834419029 -10.937728413843464 -15.52137225833871 -16 -8 3
1119 1 -0.05429196792905074 -13.864849916558171 -9.106445869812239 -11.8277273825855 -14 -10 5
2114 1 -0.0205299294355481 -16.632641599670826 -10.551492272158306 -9.05029529169679 -14 -9 5
998 1 -0.006200733584539986 -11.219490021073925 -11.747694384157121 -15.921251125545451 -16 -8 3
1519 1 0.001057072007447313 -11.776789798686076 -13.004953276428948 -16.47824434026346 -16 -8 3
2111 2 0.03611323468233944 -16.661238378486573 -11.319743450929538 -9.852344163927286 -14 -9 5
1657 1 -0.03037515358946514 -9.432539369884076 -9.939518733046233 -9.83977437106681 -14 -10 5
602 1 -0.02547651236441446 -11.764420019640006 -9.526321922284115 -13.47759619647218 -14 -10 5
600 1 0.254848387911785 -12.958982755771789 -8.980136344279172 -13.087910654850724 -14 -10 5
990 2 0.06662808394684282 -15.357285980900452 -15.946827648577102 -15.454700452145357 -15 -8 3
1129 1 0.03390173805098702 -11.616754040448948 -12.406773414410686 -8.79266119214787 -14 -10 5
1117 2 0.03687592498314363 -14.592927785630142 -8.48253839223692 -11.304044299717262 -14 -10 5
1133 2 0.02001564178951955 -8.415783415798263 -11.53220702104414 -10.389433569911775 -14 -7 4
1978 3 -0.4672849841559506 -15.896023116928484 -16.678628899877307 -13.29701813835508 -15 -8 3
1136 1 0.002165119851404974 -8.386151427388656 -9.245248586853174 -10.491505280656408 -14 -10 5
1653 1 -0.03317934848387279 -11.6910612406225 -10.134970943691144 -8.641628007611237 -14 -10 5
1066 2 0.04362088247296614 -12.365777860509342 -15.218649866748303 -8.689295753279639 -15 -7 3
1515 2 0.02424897877611279 -12.222280845205454 -16.01217113438539 -16.599166826601103 -16 -8 3
531 1 0.04171983900083805 -7.901780893496441 -12.79381328106213 -15.353348124229573 -14 -7 4
948 2 0.02191751396202111 -7.093773390060446 -16.559571624834625 -13.817787639697315 -15 -7 3
1013 1 -0.0114202218829869 -6.892072727019225 -15.590968769447192 -16.64167902591281 -14 -7 4
1011 1 -0.002489570170545272 -7.813513253748853 -16.351888778516166 -16.153997421332317 -14 -7 4
1488 2 0.01125075681798179 -4.520537737500116 -16.18519491406908 -15.370367452732774 -14 -9 5
2147 2 0.02827475036660077 -0.11605127189484936 -12.531135954194333 -11.663037556572084 -15 -8 4
1080 1 -0.02955492415281439 -4.128906513820751 -16.248373978680615 -12.528076518383234 -14 -9 5
609 2 0.03075489128535999 -8.112283545451804 -14.961600846740666 -11.336476113619595 -14 -7 4
1078 2 0.02009703915668542 -4.1417198894713065 -15.388868227664975 -13.091679893391348 -14 -9 5
1141 2 0.01694968895028245 -6.227998356604382 -8.966787824637315 -9.662613797970169 -14 -7 4
545 1 0.1940923972279356 -2.6211521928047445 -12.25866115337694 -10.875372709002047 -14 -7 4
1082 1 0.01749109067375456 -3.354761852876696 -16.676805874032077 -11.33011403311803 -14 -9 5
549 1 -0.009737388175948273 -1.636734439030639 -9.500575033442026 -11.64138447190924 -14 -7 4
536 1 -0.01564947840246219 -7.300824429768194 -13.36960343148809 -13.061634432793253 -14 -7 4
534 1 -0.04577121601665793 -6.9656913237421305 -12.70008612223422 -14.418642140420427 -14 -7 4
1142 2 0.02505943591176081 -6.201106236708562 -9.410716808068546 -11.215272339474115 -14 -7 4
1138 1 0.01682250976199928 -4.126775848572808 -11.09854069283103 -9.251600994450678 -14 -7 4
611 1 -0.003020217859917247 -4.987032362801839 -13.675750382882152 -12.177366031395417 -14 -7 4
1139 1 -0.04926655191115853 -6.763382874043875 -9.517252851503752 -10.370582173894215 -14 -7 4
1099 1 0.009751853827015225 -0.748157134446458 -12.589865099758601 -16.193745111385635 -14 -9 5
1071 2 0.03286416382880305 -5.091799202520059 -13.952320034537252 -9.021535017697861 -14 -7 4
1130 2 0.02297631695140703 -6.422309243397236 -15.441819062676243 -10.599136584240764 -14 -7 4
1131 1 -0.03991121809343059 -7.094127095629538 -14.675740105325199 -11.094918167769768 -14 -7 4
541 2 0.03337740326015565 -2.760396698382567 -13.768150550308453 -13.497170724388406 -14 -7 4
550 2 0.02273976957353638 -2.6562665612656544 -8.903406947012483 -10.010733193776353 -14 -7 4
1551 2 0.01907914723952181 -1.6893877450318342 -15.536036071081654 -15.877722266007444 -14 -9 5
1137 1 0.001080071410103231 -6.562034758334451 -10.955823706763914 -10.021998445176234 -14 -7 4
1599 2 0.0594118431785031 -1.7545393016823319 -15.474254268904302 -11.590520439914757 -14 -9 5
543 3 -0.5091817133147496 -2.892037719041119 -13.877364206003952 -10.621483241860906 -14 -7 4
1134 1 -0.02599924624933528 -7.499414158072981 -11.956898389498912 -10.234136697495403 -14 -7 4
1674 1 0.2153995629731796 -2.480626272671898 -14.602385107413564 -9.252587240392378 -14 -9 5
1132 1 0.0107848238961968 -6.82316099786021 -13.24735245155255 -10.271147787241128 -14 -7 4
1553 1 -0.02429998999927807 -1.1696459371564187 -16.20223883721493 -15.025966861212341 -14 -9 5
1135 1 -0.008830639867490494 -5.62565722397867 -13.139676197437296 -9.507770545829679 -14 -7 4
1083 1 -0.008907210644316006 -2.0855439266713507 -16.3193588222367 -10.902893102728237 -14 -9 5
546 1 -0.04227850455315305 -2.7419981000199103 -11.165626384674411 -9.924049050652277 -14 -7 4
612 2 0.09766641592508254 -4.330057277935401 -14.395166265689348 -11.628602832649923 -14 -7 4
548 1 -0.01954266227293287 -2.3249170303687827 -9.833437795681577 -10.359622735597895 -14 -7 4
1140 1 0.002324134402809383 -5.504310730964663 -11.77313224776861 -9.68776535732445 -14 -7 4
29 2 0.04048498968608764 -2.6736873422818443 -12.158808263167973 -14.256669204598328 -14 -7 4
608 1 0.001385618455549791 -6.378357802225673 -14.007472729609306 -12.285643298629605 -14 -7 4
538 1 0.2836134210444067 -5.463016282367764 -12.485448741514592 -14.67791841554056 -14 -7 4
544 1 -0.02578195433085588 -2.5620055891850706 -11.866456324584773 -12.280498588201752 -14 -7 4
542 1 -0.0007410375708312711 -3.0693749891011928 -12.770403954439113 -13.55325183769574 -14 -7 4
1015 2 0.02580068718004896 -6.143519619697222 -15.144301085325054 -16.019194378584924 -14 -7 4
1672 1 -0.03091464415428072 -1.9683823792707984 -15.845677612052127 -9.426099236314029 -14 -9 5
547 1 -0.001964300724865829 -2.378627358052604 -10.478320180349494 -12.422206106082536 -14 -7 4
537 3 -0.4564118049799714 -5.065093056207056 -12.082625068203866 -15.893700786683254 -14 -7 4
539 1 -0.0396610150039705 -4.539414557131045 -13.012201888095483 -13.455326066587224 -14 -7 4
2624 1 -0.0155418559207768 -16.089601996819564 -11.775352290529971 -4.876405680662151 -14 -9 5
2116 1 -0.03280076130117825 -15.533423653218925 -12.697186162675946 -5.902583926900706 -14 -9 5
3094 1 0.01321103628071353 -14.031763474826903 -14.286787745590138 -4.453136594743874 -14 -9 5
2626 1 -0.01914262761427064 -15.171063783006396 -14.207401671088531 -5.552958483165199 -14 -9 5
3092 1 -0.01714702787658189 -13.082355390712642 -13.22613167460451 -4.008366778803438 -14 -9 5
1588 1 -0.03107249261051551 -10.237851977000842 -14.68678441230197 -6.103552667400869 -15 -7 3
1584 1 -0.0003620685717984316 -10.626145567836774 -12.60893372125956 -7.541984090835167 -15 -7 3
2060 2 0.02293261944812442 -10.792442667422419 -15.008854966404687 -5.31366458465044 -15 -7 3
2555 2 0.03538221247033386 -13.67688105768451 -12.331449564225354 -3.899668988970541 -14 -9 5
3090 1 0.0141881277107812 -12.147510438408297 -13.447106218520954 -2.8813486131780026 -14 -9 5
3084 2 0.03191154325251803 -10.375301846979834 -11.756278738716121 -2.7833401338240424 -14 -9 5
1587 1 -0.01428440660855196 -9.826202501100688 -11.77150701704536 -6.658391034203351 -15 -7 3
3083 1 -0.00455481401432023 -10.01158441241337 -13.901802568140138 -1.8436780399655925 -14 -9 5
3087 1 -0.03584754692694134 -10.914695117114807 -12.597750448341106 -2.1443362156375567 -14 -9 5
3095 1 -0.002047790156114254 -14.001297536896349 -15.527200481784242 -3.958255242966576 -14 -9 5
1589 1 -0.02374924224350114 -8.76994487291452 -12.717102333953811 -6.133555620520108 -15 -7 3
1591 1 -0.0004605654536316423 -8.81805539007774 -14.080001706088984 -5.720152983334796 -15 -7 3
1586 1 0.003448760531067964 -10.737402670249171 -13.932002697545357 -7.439859988286321 -15 -7 3
2000 2 0.0353369364837053 -12.141158859829174 -16.611518962806812 -5.848550806949341 -14 -9 5
1585 2 0.05857949697312262 -9.873826144789064 -10.704540892286492 -6.278535663766437 -15 -7 3
1654 2 0.02869505813632986 -10.791329470564163 -10.235565332027289 -7.967987827747816 -14 -10 5
2059 1 0.01183954887185742 -9.632221864404197 -16.05332070868179 -6.574809394001402 -15 -7 3
2625 2 0.03075307970475438 -15.583209238938954 -11.61228397043253 -3.8873224897588563 -14 -9 5
2692 3 -0.4197506006068359 -16.013671103390816 -12.692095304741143 -1.5868125979447367 -14 -9 5
3086 2 0.03297927703645137 -11.08908684139923 -12.143211574594817 -1.16881900117779 -14 -9 5
2628 2 0.05107506130557527 -14.566895039501105 -14.562729304325465 -6.486171010478515 -14 -9 5
3091 1 0.01269799891585733 -11.975259818132324 -14.903037491957019 -2.6622681792091374 -14 -9 5
3082 1 -0.02824013454919968 -8.77203899917864 -14.000549475449402 -1.1494884018975366 -14 -9 5
2165 2 0.02511059388075486 -13.283062177148095 -9.251374851346338 -1.4555910624680943 -14 -10 4
3093 1 0.009673384366685432 -13.145262864967247 -15.846188828386424 -2.8016813644078935 -14 -9 5
3085 1 -0.05225658720763794 -10.891097133547255 -15.183431470265594 -1.8124234844990104 -14 -9 5
2691 1 -0.009628710428975463 -16.05939861765085 -9.889171818631885 -0.7061005194391329 -14 -9 5
2619 1 -0.02190058282994951 -15.277387963626815 -16.468711683877956 -3.647201608918141 -15 -7 3
2763 1 -0.00883198111690886 -15.557614867092845 -8.636664431704892 -1.4693033542957121 -14 -10 4
2561 2 0.01750501366103243 -16.0194799282784 -14.92664554748273 -5.513142441745185 -14 -9 5
3015 1 0.1418457493799386 -10.183726406102199 -16.349939682654675 -1.9213700314072677 -14 -9 5
2757 2 0.05286449491539312 -15.020672255436104 -10.462631727219645 -0.5208265120795182 -14 -9 5
3014 1 0.1525981620846538 -8.824826742473608 -16.410139617889943 -1.545027038478544 -14 -9 5
2063 2 0.02000882691071888 -12.775853175459602 -15.599399820239384 -7.259832503986288 -14 -9 5
3097 2 0.03833689451988431 -15.985929609980875 -15.82481975364605 -3.026916682014147 -14 -9 5
2117 1 0.2602269852930988 -15.452898436446192 -12.15078405239629 -7.328652753246645 -14 -9 5
2115 1 -0.03767246405944238 -16.530819557813683 -11.228571598603441 -7.806969549429096 -14 -9 5
2119 3 -0.4510142933463038 -14.693025309181579 -12.777806584915265 -8.292763092689546 -14 -9 5
3216 2 0.03811408357764867 -16.6322574275053 -14.401452072285258 -3.533065902086846 -14 -9 5
1999 1 -0.02834603724234349 -12.23923568282475 -16.700011620558374 -6.963649999732069 -14 -9 5
2166 1 -0.02062579666083554 -14.083573855977136 -8.606246736171594 -1.4714327343480125 -14 -10 4
2061 1 0.01668232276761727 -10.751724271582425 -16.729001161116198 -7.3336286663963035 -15 -7 3
2161 2 0.01818249084857024 -16.642736164175307 -9.245755727722429 -0.01395420390786889 -14 -9 5
1651 2 0.02084760009861848 -12.501938720002967 -9.384255536403174 -8.11253312871258 -14 -10 5
2058 1 0.002677714156151492 -8.24630340268939 -16.142735746861995 -6.885600230984357 -15 -7 3
1596 2 0.2602294684379831 -7.421662746038488 -9.184234808577344 -7.273820863892349 -14 -8 4
1590 2 0.04934364539202356 -8.1716487327017 -11.731510707100417 -5.814598964379795 -15 -7 3
2713 1 0.2531561701814188 -5.6941630439654025 -14.599990917826798 -0.010169174098966623 -15 -7 2
1072 2 0.02534612598832085 -3.4303760153758383 -9.60563696719905 -7.643680792824421 -14 -7 4
3081 2 0.04098695612359862 -8.240499435345125 -12.986157085274353 -0.7302645106718013 -14 -9 5
2571 3 -0.4348497956307621 -6.877505804738337 -15.459802641917866 -0.2649026067130898 -14 -9 5
1598 1 0.1893243556228711 -6.0137491706814 -9.307758318559303 -5.911170135244464 -14 -8 4
2072 2 0.03586797392635382 -7.902233184855493 -15.678722440642721 -3.9795637147762846 -14 -9 5
1601 1 -0.05025551330687118 -6.125519989350778 -11.994267967943486 -5.650558222019808 -14 -8 4
2637 1 0.003762305531445288 -1.1517760656099074 -16.478838482156863 -0.8527396566033792 -15 -7 2
2709 3 -0.5155869817488037 -8.20364079239094 -8.722285975905383 -0.8988815357807269 -15 -7 2
2069 1 0.00809257692686984 -5.83499155268087 -15.841172416934226 -4.1899473196459 -14 -9 5
2143 2 0.0197027006132401 -2.0139351820468043 -12.936479037276166 -3.393301554603738 -14 -9 5
1595 3 -0.6101351989962038 -7.5978135225023316 -9.418685068691397 -6.372396372464789 -14 -8 4
3080 1 0.1068750088430929 -8.353247007429497 -15.302100883391182 -1.2113031844387367 -14 -9 5
1606 1 0.2393603588889772 -1.6566597315984974 -16.245239960934004 -4.617064454155876 -14 -9 5
1678 2 0.03331408186451144 -3.4821732002537953 -13.150850458896672 -7.758845414908988 -14 -9 5
1074 1 -0.04427676772179893 -4.296461976604406 -10.066489343026959 -8.191826848115689 -14 -7 4
2068 1 -0.0186769042866573 -7.148473728868923 -15.144418264716359 -4.503811448343161 -14 -9 5
2196 1 -0.04881398506963135 -2.336986117373424 -10.83246512542588 -0.7937927406016152 -15 -7 2
1607 1 0.2204214488588287 -1.6901768122397693 -16.20206486736528 -7.097597599712022 -14 -9 5
1592 1 -0.01900544266530765 -7.594672618608272 -14.995667628559842 -6.086298443239795 -15 -7 3
2065 1 -0.04917098959227693 -5.164653239339255 -15.147884202855233 -2.9011799752831062 -14 -9 5
1677 1 -0.05532077029676169 -2.8939551621105113 -14.06514280634326 -8.01485218869339 -14 -9 5
1608 1 -0.04316335469537196 -2.05185992779326 -14.752621040962241 -4.531943864520683 -14 -9 5
2081 1 -0.05055082790981315 -1.1686358432243302 -16.560792032266335 -3.3476417789957256 -14 -9 5
1680 1 -0.03568350183827017 -2.3373482813845237 -14.950803116465114 -6.9235718819850645 -14 -9 5
1671 1 -0.01722257471387207 -4.154047084229774 -10.608351881504129 -5.2002030477878725 -14 -8 4
2138 1 -0.002993773225958063 -1.3036638860901963 -11.986496626118784 -1.2179322418464678 -15 -7 2
2135 2 0.01330745261171171 -3.521133582621289 -11.527544215574391 -5.131005939534071 -14 -8 4
2125 1 -0.01411947942704024 -6.542835800853253 -11.416630607955954 -2.209119490385924 -14 -9 5
2062 2 0.07532315483232244 -5.492147864837215 -15.683573811481324 -2.004173122607668 -14 -9 5
2126 1 -0.003291433800274319 -7.078599101998017 -11.242852065787295 -3.427925896274639 -14 -9 5
1602 2 0.07403899579420591 -6.857793588885835 -11.254341945138982 -6.279492986398788 -14 -8 4
2199 2 0.0275635034343796 -4.332102494408993 -12.53056607254791 -0.6493952722113115 -15 -7 2
2716 1 -0.07139756303202663 -5.2607309457074285 -13.245867657141783 -0.6841052808916179 -15 -7 2
2127 2 0.07591762617546079 -7.334879713569826 -10.198394377911823 -3.617820300590013 -14 -9 5
1075 2 0.01748332394994146 -5.031277389810554 -9.372549364405183 -8.052898451362438 -14 -7 4
1675 1 -0.01964497177281785 -2.2575905076030933 -9.43468665781898 -4.432113676060306 -14 -8 4
2586 1 0.01150797368035868 -1.2705228708347962 -15.753149757541333 -2.0768471831731947 -14 -9 5
2131 2 0.01796548362175682 -5.261130718912023 -12.475292571128278 -5.97483923594631 -14 -8 4
2573 1 0.01751703181788595 -6.158669459716733 -12.855769268709615 -1.7467556419407713 -14 -9 5
2124 2 0.06711943107968274 -6.522300904929205 -10.673204047096833 -1.4087580287929327 -14 -9 5
1612 2 0.01869637745278485 -4.026097906853108 -14.523395090251512 -6.03155409999586 -14 -9 5
1600 1 -0.02325318958432838 -5.4599514707732375 -10.476318502188997 -5.357798558780467 -14 -8 4
2130 1 -0.03559750796804759 -0.8717476404949617 -9.37134223183665 -1.631351725759704 -15 -7 2
1670 1 0.0008978816755990417 -3.4158709368020914 -9.31740876651313 -5.21235403305924 -14 -8 4
1610 1 -0.01144995843620617 -3.056422918927128 -14.102914132188761 -5.630797108752814 -14 -9 5
1609 1 -0.01893834121959171 -2.233841751310682 -13.90996785129134 -3.4091602583103606 -14 -9 5
2139 1 -0.003353025852826083 -1.7889038998433349 -14.40786962981367 -2.228458664510296 -14 -9 5
2067 1 0.008187715305929016 -6.190629910692856 -13.877897131732603 -2.75700271702671 -14 -9 5
2132 1 0.2144217841827595 -1.9904005728726852 -9.440824141915542 -0.7840188443525812 -15 -7 2
2641 1 -0.00205555252654647 -1.7989985648326199 -13.293020209899696 -1.1440123790323764 -15 -7 2
2066 2 0.02301100245460763 -4.236591887330516 -14.683054779275022 -3.2083691912346985 -14 -9 5
1593 2 0.01375533166002571 -6.738545187646198 -14.559974943197416 -6.701610183842443 -15 -7 3
2137 1 0.004096466241114202 -0.05641978047505319 -11.46961187802142 -1.6899780673868623 -15 -7 2
1676 2 0.0182857023779393 -1.7918741683024955 -10.322170567843045 -3.839542263855165 -14 -8 4
2128 1 0.004548521106236702 -6.675427771555101 -12.326689733877 -4.338881441973638 -14 -9 5
1597 1 -0.01222529501675489 -6.8815999741950105 -13.679450038570543 -3.945540511980603 -14 -9 5
1611 2 0.007394774932426016 -3.609529471237342 -13.178512824062242 -5.35474366815936 -14 -9 5
1604 1 -0.0293683119011683 -1.2483828362041751 -16.50648416665296 -8.3802558263936 -14 -9 5
1077 2 0.0227992979550503 -5.6884607304703145 -16.4535672209982 -8.103580265590697 -14 -9 5
210 1 0.0141920438721891 -14.715904145013544 -11.858362336768481 7.441373985858659 -14 -8 3
3859 1 -0.0138353236873815 -14.652426955558592 -12.837481798957066 6.2277144987603705 -14 -8 3
3289 1 -0.013936130923743 -11.456583473838839 -14.680476409045847 1.5243053669809759 -15 -7 3
3291 1 -0.05176432865653433 -10.976357494449358 -13.170463448325474 2.102796599591962 -15 -7 3
3286 1 -0.04553042741519983 -10.233727398167533 -15.414654962570639 1.89063287800183 -15 -7 3
3296 1 0.05574810915333266 -11.069650768845436 -10.799010269015284 2.8137504880241666 -15 -7 3
3297 1 -0.0528330112531524 -10.21248079978984 -11.630752120717549 3.609938883262848 -15 -7 3
3294 1 0.2890652671052684 -10.177028358688633 -13.068367411607374 3.403597542849117 -15 -7 3
216 2 0.03840561697660358 -13.751630333135642 -10.05182467709565 7.407508767885648 -14 -8 3
3284 1 0.2189277366386151 -9.326029952186765 -15.30723459508935 3.006472263555654 -15 -7 3
3862 1 -0.01782768354847886 -14.919244972106977 -10.343628300195064 7.3630094693426535 -14 -8 3
3861 1 -0.03348705148186534 -15.715008684008799 -9.936206874485453 6.019678688353655 -14 -8 3
3858 1 -0.01273213908499522 -16.738957333881235 -9.071746351204222 6.448888307968463 -14 -8 3
3293 3 -0.5903526772821285 -9.192904592466899 -13.99080645943945 3.8352107883962265 -15 -7 3
3353 2 0.03623787039258057 -16.163743280584104 -10.69631839469562 1.7650216024659435 -14 -8 3
3678 1 0.006380845445979036 -13.588191763362408 -13.699085665445748 6.7070442111537245 -14 -8 3
3167 1 -0.02236529265928389 -12.37265060502779 -14.260436650909197 6.0855704728490245 -14 -8 3
3171 2 0.03074060409229765 -11.939895617455802 -13.643202003719002 5.249982691357823 -14 -8 3
3166 1 -0.005233515496090952 -11.76448552555079 -15.444775696506497 6.592715968415723 -14 -8 3
3230 1 0.04924949124298097 -10.86675641873114 -10.504347966152997 6.791200970852279 -15 -7 3
3299 1 0.01743102617829214 -9.343049300398908 -10.915392109331075 4.789996266328961 -15 -7 3
3169 2 0.03510145232475506 -10.836583779869828 -15.37759341187728 4.700909024476013 -14 -8 3
3300 2 0.04966375813296406 -9.695278035279872 -9.722717313479928 4.759381185161569 -15 -7 3
3170 1 -0.02081121132038066 -10.285704373687375 -15.609082050320952 5.797524087423736 -14 -8 3
3298 1 -0.03504510028842051 -9.929857292845893 -11.477831929429902 6.024207382409671 -15 -7 3
3292 1 0.01024225405101831 -11.254733838611369 -11.838681264921624 1.5940246998334326 -15 -7 3
2777 1 0.003680341138989168 -10.532408871380598 -9.564795762250302 2.3992103520376222 -15 -7 3
3290 2 0.03925353077340209 -12.394525517931472 -15.333223994405659 1.371783454516276 -15 -7 3
3288 2 0.03666295112362164 -11.261029402086212 -14.083039567589706 0.6366073731029589 -15 -7 3
154 1 -0.01876872191387557 -15.625196886880468 -14.317498408125815 7.811033171067177 -14 -8 3
3795 2 0.06367666536210539 -14.524349978224077 -12.555706820566499 5.061903119170496 -14 -8 3
3866 2 0.2763472544826444 -14.418347676763794 -11.65058722869703 3.5209184612802877 -14 -8 3
3864 1 0.2374242965179958 -15.44433129840014 -10.173831213317374 4.67474682832981 -14 -8 3
3865 3 -0.5923992419507519 -14.15335801509728 -10.946511671297008 4.075680063093597 -14 -8 3
3863 1 -0.04843997937417894 -16.723000805642933 -10.018924306430966 4.009284224422173 -14 -8 3
3790 1 -0.00537977564483582 -15.949263744124472 -13.716798631009015 6.419529567045531 -14 -8 3
3229 1 -0.02301925185617045 -10.930933332094872 -10.543792823662416 8.255472492275391 -15 -7 3
3599 3 -0.4331658264821743 -14.964113297390519 -15.527765928354587 0.4080477794471869 -15 -8 3
2612 1 0.2031206461194426 -16.101358559983165 -16.225149802702504 1.1301271576581826 -15 -7 3
3604 2 0.01823766273549969 -14.22145028357334 -16.351497688191408 3.7201610444818156 -15 -8 3
3165 1 -0.01633523674111099 -12.190272259865239 -16.013336296124677 7.884357717791047 -14 -8 3
3168 2 0.04437612167335125 -9.281478050231987 -15.048241502745519 5.990154693285166 -14 -8 3
3792 1 -0.02861694262542922 -16.61108287558287 -14.627222362862975 5.609935187684931 -14 -8 3
3594 2 -0.01145324255186703 -15.750162839728786 -16.605875460397545 2.1372200353050785 -15 -8 3
211 2 0.01511388401073642 -15.48947394268998 -10.070215492792702 8.196643927439492 -14 -8 3
3856 2 0.01317619330857567 -16.635657954161733 -8.534886573609095 7.495379784740941 -14 -8 3
3796 2 0.02423845651882484 -15.896060899008603 -12.157330953211266 4.159462737098378 -14 -8 3
3793 1 -0.01678073069498551 -16.76417559591204 -12.842507765178064 3.9987885375600993 -14 -8 3
3734 1 -0.03873323506636486 -8.909810350917326 -12.394967537496377 8.18214550528829 -15 -7 3
3163 1 0.003979073234459105 -13.350724086860797 -15.539077886391757 8.362807774958322 -14 -8 3
3676 1 -0.002647228499719566 -14.051983474454282 -14.30412595432966 7.854142297326718 -14 -8 3
3600 1 0.1794552795103684 -13.784111081284522 -16.687569473356664 0.7020593900321295 -15 -8 3
3232 1 0.2502931135526735 -8.952760873436723 -12.111521886642631 6.865553874043151 -15 -7 3
2778 1 0.04341573548110454 -9.781319721462193 -8.756530103346154 1.942936649649492 -15 -7 2
153 2 0.01521071449799032 -16.200062026384906 -15.518519904629905 7.96485694787442 -14 -8 3
2721 1 -0.001128515534554047 -5.897941435472145 -8.725673870152804 2.1671868881930547 -15 -7 2
3252 2 0.03189175477360356 -2.709566612526439 -8.385300188638242 2.398759979342319 -15 -9 4
3174 1 -0.02264622612811039 -7.497222013385389 -16.248590729588994 8.066406924135016 -14 -8 3
51 2 0.0463680222247309 -1.761389411829614 -15.158569210995045 7.626672577836064 -16 -7 2
3301 2 0.06156699792541531 -8.317152931115123 -10.822148581152438 4.769674467601735 -15 -7 3
3188 1 -0.01183342623652574 -0.8882024078153586 -13.401180993266795 4.3609686235674685 -16 -7 2
3234 2 0.02120679955825316 -6.927855228797636 -15.357914337598501 7.209172993441478 -14 -8 3
2698 1 -0.01130366308338329 -5.222146851475051 -16.37252036150256 5.441444832142538 -15 -7 2
3761 2 0.07629822080906427 -2.633176602174157 -9.38425664247315 7.910400176119297 -15 -8 3
2742 1 0.01413699627117111 -0.49717493397865015 -8.569464130071587 2.048235972310921 -15 -9 4
2699 2 0.0191117377702218 -5.442692486769743 -15.625743112347976 6.419405615557092 -15 -7 2
2194 1 0.2385321770703915 -4.193820916440212 -8.820007001041398 0.4997173813326376 -15 -7 2
3255 1 -0.01143362824184983 -1.8026942063472422 -8.740935602075101 2.9112160048395763 -15 -9 4
3224 1 -0.04093648778219119 -5.825597861264987 -16.276287143200143 4.087229238929819 -15 -7 2
3316 1 0.003469061077341002 -4.679986011131142 -8.662164459403485 7.308749245731474 -14 -8 3
3696 1 -0.006247760037639282 -2.6816520471144996 -15.002443269082137 8.176314324882727 -16 -7 2
3222 1 -0.06176912793333814 -8.174928545261977 -15.997625214748403 3.0690842668547273 -15 -7 3
3756 1 -0.02554848787963754 -3.8658440578693694 -11.36021852900544 8.200069174324005 -16 -7 2
2633 1 -0.007518668077194417 -2.3607506305272405 -15.979612535246272 1.1389326326126745 -15 -7 2
2638 1 -0.005492331543531454 -1.1340234040100508 -15.837813748592401 0.391264108012826 -15 -7 2
3190 1 0.2801992516705759 -0.6648049273305272 -10.802974785216605 5.144833967063492 -16 -7 2
3694 1 -0.05366280233671734 -3.265585252884408 -13.638735292851534 7.690778575495884 -16 -7 2
2640 1 -0.006810746790509307 -0.8491004902072128 -14.381996943256913 0.5204541840867731 -15 -7 2
2695 2 0.08315489308829374 -7.762454767891151 -14.884468221528977 4.5559706352624305 -15 -7 3
3187 1 -0.05922905296585886 -1.333007814298652 -11.981351902176243 4.707912669229868 -16 -7 2
2725 1 -0.04201106659913459 -4.0308383626599085 -10.287945582515718 1.035744914250959 -15 -7 2
2726 1 -0.01633056230681518 -4.88198390429655 -10.72049223517631 2.118164832072833 -15 -7 2
3186 2 0.01145064225024906 -1.511040112374256 -13.928418483026906 3.7683244417585247 -16 -7 2
3811 3 -0.6834415369549588 -7.728873467875807 -12.473888442659305 6.0379865984235455 -15 -7 3
2794 1 0.018383951761513 -5.701575357440203 -9.359586705811484 5.420528622762555 -14 -8 3
2708 1 0.00980690826503741 -3.162110172555625 -14.957482883094837 0.400177399376157 -15 -7 2
3183 2 0.02514940042688389 -3.109026478637054 -10.742455775186862 4.028389488601026 -16 -7 2
2711 1 -0.04440028335670591 -4.600555463609607 -15.085938757067519 0.2086376113015499 -15 -7 2
2723 1 0.001387635850568791 -5.957593160678603 -9.900766725515284 2.7780942294072495 -15 -7 2
3691 1 0.0239788175746936 -4.247776373567385 -11.199739013383642 6.840813078872111 -16 -7 2
3217 2 0.05109599595135193 -6.647942622979174 -14.387883401842641 3.199117668129718 -15 -7 3
3242 1 0.01573223202584299 -4.832713059194536 -9.858522896749383 6.546372251097409 -14 -8 3
3237 2 0.07959407464196605 -6.688307299700876 -11.03578026552959 4.606676875970001 -14 -8 3
2791 2 0.03296944420348287 -7.2326456906648975 -9.193335479399352 3.959213092052429 -14 -8 3
2706 1 -0.01492508522659374 -2.0950187806904994 -13.825786917120393 0.15311187679466073 -15 -7 2
3812 2 0.3482969448017751 -8.054099661861502 -13.10403873815446 5.488305048899359 -15 -7 3
3251 3 -0.5243129451460096 -1.1764807000356319 -9.757613217478609 5.969000957682914 -15 -9 4
2197 2 0.01153254221856538 -3.419248044013201 -12.17702063632349 0.5021360579869453 -15 -7 2
3256 2 0.01425272780917376 -1.7540776583880868 -10.08115044996274 2.675932147351881 -15 -9 4
2728 2 0.01650188164438201 -4.184690658578661 -11.506454323432495 2.38994985176339 -15 -7 2
3221 1 0.01978906038919324 -7.067338545741142 -15.279165766055504 3.788747742511412 -15 -7 3
3693 1 0.003973494447812052 -3.2824166223918314 -13.490805618508483 6.134597572348668 -16 -7 2
3184 2 0.0128171816401379 -2.6952890678172747 -12.523631568752336 3.7075068688803783 -16 -7 2
2198 1 0.01076332237146205 -3.2995934494197288 -11.14584857121835 0.17250616058582258 -15 -7 2
3185 1 -0.01272129475452939 -2.8079406744404376 -11.655729654670997 4.457568109501213 -16 -7 2
2724 1 -0.05100941107382168 -6.450874735962485 -10.077690166793994 4.241342949880799 -14 -8 3
3692 1 0.013515749936992 -3.6393976315787997 -12.073404463568558 5.834286292675687 -16 -7 2
515 2 0.04817530733827102 -1.1120731257142085 -13.625097662654607 8.117879012514004 -14 -7 3
3736 2 0.04793748496027492 -6.860291712680238 -13.508260283981324 8.375507744901293 -15 -7 3