LAMMPS data file via write_data, version 2 Aug 2023, timestep = 3990000, units = real

1623 atoms
3 atom types

-16.76558630273882 16.76558630273882 xlo xhi
-16.76558630273882 16.76558630273882 ylo yhi
-16.76558630273882 16.76558630273882 zlo zhi

Masses

1 12
2 1.008
3 15.999

Atoms # charge

2614 1 -1.442035922588625e-05 -14.400779358712233 -13.049565658536503 -9.219663783656895 -16 -8 2
2225 1 -2.460560723136244e-05 -15.70502707907904 -12.540453323034772 -9.707315172263815 -15 -9 4
3266 1 1.296439122272074e-05 -13.46964398594727 -12.011469084962467 -9.172377614952849 -15 -10 4
3143 1 -6.652915950906835e-05 -14.663360123690362 -15.002393275420276 -10.876849945463531 -16 -8 2
2747 1 1.656229476447446e-06 -12.779575062629446 -10.83504313936547 -9.745037784403916 -15 -10 4
2171 1 3.219815309981472e-06 -13.065215376195155 -9.691585311995857 -10.577656989098857 -16 -8 3
2114 1 3.073270789723248e-06 -14.403851136476687 -9.720887496762998 -11.48192167206285 -15 -10 4
571 1 -2.769323988839612e-05 -11.877756267620184 -9.845751565857615 -12.970760873307174 -14 -8 3
1035 1 -2.423858260082457e-06 -11.067386221902556 -9.001686733942723 -13.533037387593955 -16 -8 3
1498 1 -4.422243320534661e-05 -16.23317669114995 -9.270589791477232 -12.659379657519409 -16 -9 3
2158 1 -2.488641686739304e-05 -15.605752728205237 -10.44578496655902 -10.850858976019845 -15 -9 4
794 1 -3.260095032305704e-05 -10.30044935043681 -8.575113646384567 -16.098632447294122 -16 -8 3
2212 1 -6.8760578177951e-06 -16.008871985842624 -11.189892188020501 -9.609583179974912 -14 -10 3
2175 1 -1.51708681827567e-05 -14.912700668584764 -9.032086699595833 -12.525083735223822 -16 -8 3
2610 1 -4.228405869750179e-05 -15.014883514368115 -16.32557670117073 -11.040510550646824 -16 -8 2
3215 1 -4.193566680986416e-05 -14.273443053180637 -14.294244125667076 -9.845550827789722 -15 -10 4
2117 1 -1.339301641498092e-05 -10.984736606100427 -8.94991167549966 -8.830024186920948 -15 -10 4
2115 1 -1.653546982018431e-05 -11.63768378318505 -10.410298177987075 -9.132796745756222 -15 -10 4
2749 1 -4.348534520495773e-05 -9.066257297482233 -9.47101336857946 -16.699910301143056 -15 -8 2
1635 1 -3.198487984676021e-05 -16.67177556359017 -10.300969653381 -11.887576198103732 -15 -9 4
2615 1 -3.329240850731552e-05 -12.214628107543222 -12.712819245106136 -9.075147922754018 -16 -8 2
2607 1 -4.988887675704337e-05 -16.737193761100613 -13.078517994919402 -10.429763010423406 -16 -8 2
2016 1 -6.912059686323135e-06 -3.287949643853506 -14.801176682916154 -14.296544260309448 -15 -10 4
1080 1 1.087393232505375e-05 -0.6678120962482013 -16.095035285751518 -13.149046304016043 -15 -10 4
1008 1 -1.396470468650879e-05 -4.126641011641088 -16.132621816610325 -12.48358487105338 -16 -8 2
1531 1 -1.259912260714868e-06 -2.363618567621164 -15.420361475143494 -15.039320836030402 -16 -8 2
1485 1 -3.842302029877231e-05 -4.262004247805931 -14.853010492852672 -12.99328579775152 -15 -10 4
1010 1 -4.41528743467326e-05 -0.30527856408797477 -14.61782015189729 -16.722580208482476 -16 -8 2
2018 1 1.531842745568918e-05 -1.3703903208711639 -15.197173301151443 -15.966795764818567 -15 -10 4
2503 1 -6.069339084657788e-05 -4.650563301758599 -14.514112826489738 -9.58073754941589 -15 -9 4
1084 1 -1.721087736099997e-05 -0.30805637372245176 -14.2352305366634 -13.803228253189276 -15 -10 4
1876 1 6.814082406682992e-06 -4.2004948367321955 -15.003453822195446 -8.437064723683068 -15 -10 4
2134 1 -1.312419938973713e-05 -1.1108332960308218 -8.399994578922668 -11.263405809160776 -16 -8 1
1619 1 -1.949140806917909e-05 -0.002434307732822379 -8.41963760932134 -14.712003112848215 -16 -9 3
3208 1 -1.176712047578146e-05 -10.083628486859313 -10.30639481578865 -6.887449013184516 -15 -10 4
3203 1 -2.040427059155081e-05 -10.480746085289246 -11.553065416686609 -7.413661980840181 -15 -10 4
3273 1 -2.012943986442334e-05 -9.255218565859849 -9.683684193696903 -2.8619792337232783 -15 -10 4
2626 1 -1.265087667520065e-05 -10.236581455629343 -8.945816122888331 -7.575505184237683 -15 -10 4
2619 1 -1.103279358303372e-05 -9.003118916651955 -9.398708653861389 -4.394070888607571 -16 -8 2
2684 1 -1.613038726019228e-05 -10.00417228619166 -12.459549526546366 -6.115518842298555 -15 -10 4
2686 1 -6.748865003854132e-06 -9.589309469639124 -10.278409841155222 -5.424454647544413 -15 -10 4
3791 1 -8.576196891374455e-06 -9.462392060874693 -11.502752286135403 -1.112618478039952 -15 -9 2
2618 1 -3.517584214775271e-06 -9.72570384646275 -11.428370299356603 -4.986902655814156 -16 -8 2
2716 1 -2.005847029548646e-05 -8.725410970368964 -13.023520658976203 -3.499555863125943 -16 -8 1
1484 1 -2.386966151136927e-05 -9.65176771007786 -13.881413550784469 -6.008232953266872 -15 -10 4
3603 1 -9.290951338079834e-06 -9.330377632233908 -11.77982741475903 -3.679786617081542 -16 -9 2
3612 1 -4.06212040438142e-05 -9.734747171187262 -10.995779695408757 -2.471418547735143 -16 -9 2
210 1 5.177688652088785e-06 -9.320621015402201 -10.212476971266248 -0.6589475367045916 -15 -9 2
753 1 -1.611841119412288e-05 -9.134028432541575 -12.706044206148311 -0.45165232976849806 -15 -10 3
3790 1 -3.356761887918225e-05 -8.869477838482563 -15.064533149951238 -5.705294401784431 -15 -9 2
3792 1 -4.325851930024605e-05 -9.203792642394147 -9.138874576977548 -1.5834818196099927 -15 -9 2
3274 1 -3.869191265035155e-06 -11.682317995393168 -11.564514062816793 -8.096100345890164 -15 -9 2
3538 1 -8.025771584249664e-06 -8.596613048359895 -14.075697207063792 -0.8367012853065078 -16 -9 2
3614 1 3.031561044009382e-05 -8.15190135095174 -14.310408090456049 -3.4941814936479436 -15 -9 4
3608 1 -2.101328851398382e-05 -8.257754139958966 -15.392880001384324 -4.494309644143078 -16 -9 2
3034 1 -2.046210600537002e-05 -7.8942631399832015 -16.20285030549612 -0.4579218100891758 -16 -9 2
3050 1 9.973260449783194e-06 -7.245714358821785 -16.500469818678337 -4.131220860211428 -15 -9 4
1131 1 -2.462297191320462e-05 -3.6837048776045496 -16.459243959889296 -8.279766142126828 -15 -8 3
3284 1 -4.91061379179758e-05 -7.942877418232373 -14.571226456202645 -2.093895408007876 -16 -8 2
3014 1 -4.563913056948588e-06 -3.3841915031656953 -11.361860573401431 -4.8822783979606275 -15 -10 4
2440 1 -1.941191126858532e-05 -4.542731728597724 -13.820431403282209 -7.742657299264981 -15 -9 4
2247 1 1.90030411652449e-05 -1.9378971685975968 -9.736124731106651 -2.273634776889251 -15 -11 3
3059 1 2.668346136455377e-05 -0.6380991572931249 -16.395487807575325 -6.662041923186961 -16 -9 3
2713 1 7.189847776543565e-05 -2.774274984182406 -9.864848188332148 -4.8556534957273305 -16 -8 1
1081 1 1.358220485812855e-05 -4.773233030260751 -12.948712710840367 -6.791988897342981 -15 -10 4
2198 1 -0.0008408997671552065 -1.3986616791644602 -12.13583965042938 -2.8147616961156436 -16 -8 1
3286 1 -2.874110708176586e-05 -2.7354052926044043 -12.877756329244578 -4.55945795865005 -16 -8 2
3221 1 -7.691947013779843e-05 -1.5155735173524227 -15.256512074142384 -4.928550465469742 -16 -8 2
3602 1 -0.0001259067539951531 -1.6811215882042974 -13.170242722215722 -3.7778004471482873 -16 -9 2
3283 1 6.535693179042339e-05 -0.6707718440689725 -14.251993961926093 -4.2512167081375845 -16 -8 2
3080 1 8.393106890568561e-05 -1.7425759239768377 -9.94465536950938 -5.963065804171976 -15 -10 4
2633 1 5.345327635088853e-05 -0.806746767910852 -10.117665787660036 -6.708939350698971 -16 -8 1
2725 1 -0.0006796108397259006 -0.960941736904983 -11.011396295396722 -2.014954501191369 -16 -8 1
2182 1 1.264336507816183e-05 -2.751523248347409 -9.170313895904178 -3.2559848112767606 -15 -11 3
3185 1 0.0003260875199138091 -2.0349569490055996 -9.21853351542444 -1.0219925870877589 -17 -8 1
3100 1 -9.187370474481732e-06 -7.683541735664248 -15.72640481138588 -1.7399134600300834 -16 -9 2
2702 1 1.769173960524534e-05 -3.8680810620493564 -12.536397343141653 -5.549521807094209 -16 -8 1
2489 1 5.030207352100906e-05 -4.039614379956617 -8.721327040407465 -5.1481227578824145 -15 -9 4
3085 1 -3.494305574291631e-05 -2.995135350899692 -8.39760401689655 -8.304061655908956 -15 -10 4
2504 1 5.296747961938512e-05 -1.8710288880680739 -16.269212180504578 -5.69115518137099 -15 -9 4
3864 1 0.0001187772342961524 -7.304751265575266 -8.555479978351023 -0.29135813022705886 -15 -9 2
3200 1 3.050147044263152e-05 -10.75871281570356 -10.76996149263888 1.9213829533955487 -17 -9 1
3394 1 0.0002102212161783062 -12.95962185974544 -11.400291683088838 6.816000724273477 -16 -8 2
203 1 0.0005213859832829473 -12.668730250291455 -12.737849642331776 6.641949664810334 -15 -9 2
492 1 -2.889647087252201e-05 -10.69688129363957 -9.458999824663168 2.5913934969343466 -15 -8 2
3459 1 -3.822835052820495e-05 -10.987059130322606 -9.276520601218278 3.9435766268927237 -16 -8 2
142 1 -0.0001587278548680904 -9.97186651077176 -11.435989903203998 7.366478349856307 -15 -8 1
875 1 -9.136358208143916e-05 -11.294724557369966 -11.06444417718341 0.8004745130610235 -15 -9 3
3513 1 0.0001362847270582335 -15.486286623783826 -9.472000729015743 7.843536656525991 -15 -8 2
281 1 -2.624562884107062e-06 -12.482488501057572 -11.560595444745049 0.500270448039763 -15 -9 2
269 1 -0.01687169125737276 -15.601486795600637 -14.612444467191741 7.0509179883685125 -16 -8 2
4057 1 -0.0004142282236876127 -13.122614010743204 -14.447978425532776 6.849901868394791 -16 -9 2
4050 1 0.0001711315123676688 -14.188638683982523 -9.341448053481763 7.23640174328012 -15 -8 2
3915 1 0.0001347391555040836 -14.055363268383536 -10.62278918252869 6.51423698486168 -16 -8 2
860 1 0.0005483625593459191 -15.53791917231288 -11.08462567137891 6.485719080224649 -15 -8 2
267 1 0.002458634815113381 -14.338755784253145 -15.114278882400583 6.931247846804171 -16 -8 2
4055 1 0.0009696984097728664 -15.796580947870707 -13.306555758169662 6.572300595524272 -16 -9 2
1996 1 -0.0014392641498897 -16.09532130232082 -12.195865084095699 5.8410925815609955 -15 -10 4
1585 2 0.02049419210411983 -16.630686997818415 -15.135399320766307 6.853725604593093 -16 -8 1
862 1 -0.0001831081475282595 -16.190221113407162 -10.269664617888058 7.08515165677682 -15 -8 2
268 1 -0.0001521486134919495 -11.325441214955708 -8.679761502454694 5.020470525748966 -16 -8 2
3741 1 0.0002746372892037385 -11.435316275458465 -11.550985331678023 6.848719037999811 -15 -9 2
3163 1 0.0001623153858837734 -9.163364802427175 -11.356214590376142 1.4733229603467122 -15 -9 2
813 1 4.698905893319241e-05 -8.91818955968114 -12.757373800762617 1.027791172316559 -15 -10 3
3676 1 2.514604387860581e-05 -8.914409946790354 -10.199417217832313 0.5505069071970141 -15 -9 2
981 1 0.0002804129107861486 -12.070320716217532 -8.597639689830284 6.284816257527615 -16 -8 2
805 1 2.504391213407897e-05 -11.25492111279013 -8.461423304564423 1.7014644541249524 -15 -10 3
3544 1 3.962607706661445e-05 -8.540251970185441 -13.852238588589392 3.2518554633117422 -16 -9 2
3540 1 1.134345834359618e-05 -8.8286023688054 -13.846425771111539 1.8869466151929861 -16 -9 2
3224 1 1.987252503013459e-06 -0.5383415793968005 -8.510539014880063 6.37017720945771 -16 -8 1
199 2 0.02028473777157834 -6.739776918847241 -9.350342801792955 5.98302803006641 -16 -8 2
3536 1 9.290284984263958e-06 -8.229395135899418 -14.86697932928934 1.322089912366635 -16 -9 2
3861 1 -0.0001055156915149638 -7.003642198325573 -8.606148380887271 1.7769010120245154 -15 -9 2
1998 1 -0.01367321822976182 -7.099928350482438 -10.11820618436782 5.013848899138273 -15 -10 4
154 1 3.248464967585581e-05 -8.197912693842392 -8.955162635906804 0.9413364668251694 -15 -9 2
3177 1 -4.207434404124646e-06 -6.232794105797026 -16.653238524926063 4.795983663528559 -15 -9 2
404 1 -0.0002852111773077939 -0.13201382100712727 -11.47364618180548 3.5387698657928235 -16 -9 1
3678 1 -0.000679744501377387 -6.238844122350234 -9.56149246458934 2.8185822150838007 -15 -9 2
3175 1 -4.115543508281805e-05 -6.9789251282358675 -15.789129468815693 6.019782690337674 -15 -9 2
3473 1 7.55454195495997e-05 -0.8645130847768169 -9.052173715293215 7.677853986748729 -16 -9 2
804 1 8.177311291920897e-07 -1.946037080164197 -16.427724431248397 7.821947268287999 -15 -10 3
932 1 0.0001080402049480171 -3.4322150123154 -14.747930164595969 7.606100762225384 -16 -9 1
143 1 -8.65797123296777e-05 -3.8535340109598963 -8.631563959613924 4.993487692621054 -15 -8 1
3855 1 -0.001482175733946649 -5.619434105246713 -10.83080592198479 7.695305020981845 -15 -8 1
3539 1 -1.555795873809523e-05 -7.257392628402935 -16.147501231842234 1.5023965350206698 -16 -9 2
3291 1 -0.0006645872683080575 -2.558907820107393 -10.517647141480756 1.3212616816413314 -16 -8 2
877 1 0.000103769066886094 -3.485788256866369 -11.059736978768186 3.4722449407578524 -15 -9 3
3997 1 0.0001301394606701214 -3.2322665508173856 -10.473608970807785 2.2990848792407585 -16 -9 2
3416 1 -0.0001141318979400487 -3.8795721855843968 -10.23472201018944 4.673299194930793 -16 -9 2
3318 1 -0.001296378903991854 -1.8297849211652177 -10.286173949685312 0.21778626067527687 -16 -10 3
3622 1 -0.0006272642980877097 -0.9449608339332984 -14.546385289004105 1.9913765253717752 -16 -8 2
2934 1 -0.0008188806244281031 -0.5125869921974585 -10.07895087723776 0.6751917827516816 -17 -10 2
343 1 0.0001389457116670392 -4.175654023407893 -13.499020049338213 7.748548710658711 -15 -9 3
1508 1 0.001099625569194011 -7.375237464462207 -11.060362294818232 5.794299614727244 -17 -9 1
3743 1 -0.0002060564264584688 -2.9486382447088406 -15.83442594880231 2.625206276062735 -15 -9 2
3999 1 -0.0001517771220735445 -3.452109283538334 -12.473915739392863 3.3235673160959394 -15 -9 3
3173 1 -6.75207051831217e-06 -8.078062829953208 -15.117922885481274 3.552410977818329 -15 -9 2
3626 1 -6.663283992944594e-05 -1.9766705469266121 -14.776142203250853 2.9885701918727414 -16 -8 2
3166 1 0.003705843441297473 -7.276975728481224 -10.300338612186916 3.6243487914618315 -15 -9 2
3294 1 -0.0004304920883955454 -4.227557560168225 -11.191762009558888 5.495811757989644 -16 -8 2
3740 1 -0.0002475667907138185 -2.8955758963864167 -13.641108294281741 3.253978485852489 -15 -9 2
490 1 5.918187979223055e-06 -4.297412837894357 -15.616477301926555 6.654527609315661 -15 -8 2
3936 1 -0.005216594702610745 -6.994118654232875 -10.74608963538504 7.380831046229378 -16 -9 2
3165 1 -0.0006838378733668091 -8.100988863552976 -11.128118255261098 2.5730003097702077 -15 -9 2
1265 1 7.765741731852877e-05 -7.66949939704266 -15.075935155515014 4.971075298332834 -15 -10 3
3170 1 2.789034633932271e-05 -8.132761476909053 -12.350384467905572 3.5007930130420473 -15 -9 2
931 1 0.0001184205719195197 -5.74877605356615 -13.69491602369742 5.902592722838784 -16 -9 1
3616 1 8.652955389768652e-06 -7.068224212037304 -13.718892942524201 5.254476055639476 -15 -9 4
340 1 -0.0003590834662974621 -4.66405000418002 -11.529312487908333 6.723468299790637 -15 -9 3
874 1 0.0006281365725245673 -5.331691759009313 -12.810300772027828 6.967337896831378 -15 -9 3
3167 1 0.000670187011979316 -7.611992706981294 -12.257875791559526 4.7826631799673205 -15 -9 2
3618 1 -8.636189695591934e-06 -7.3012421924738415 -16.088933023354066 2.7784985977174252 -15 -9 4
488 1 0.000108468486197319 -5.669776070166532 -15.288402289776386 6.213369773134639 -15 -8 2
3682 1 0.0003329215568223312 -0.5478967226124029 -15.976044421953446 1.3537031605529803 -16 -8 2
337 1 3.287808311926675e-05 -3.802205098083759 -16.66446580739277 6.06471196996866 -15 -9 3
3039 1 -6.25715299119034e-05 -6.814899972499683 -16.585311420421494 0.3637744164287796 -16 -9 2
3357 2 0.02451095410443778 -0.1029989246445322 -12.637293098513926 0.3386879420338655 -16 -9 2
3609 1 -3.128289417485795e-05 -8.275919097273016 -14.965204663872182 0.014455438048889796 -16 -9 2
811 1 -8.007215525945854e-05 -9.679735884333544 -9.689627798285736 15.522308320614172 -15 -10 3
1506 1 0.0001480352196494492 -9.431085489226682 -8.881835300333977 12.866269830582487 -16 -8 2
3396 1 0.0001883707345437524 -9.713304091809873 -9.466622439559835 14.375925230454035 -16 -8 2
982 1 -0.0003888541847102203 -9.922048924294366 -10.066746967620976 9.499869276182501 -16 -8 2
115 1 -0.0001265131234019466 -9.087213977818601 -9.449436548175928 11.669622731276661 -16 -10 3
3863 1 -0.0006012252555060577 -9.660699390160795 -8.80476305824991 10.607888138377886 -15 -9 2
3937 1 0.0002091658167799881 -9.888148787782276 -10.92418197906915 8.81396888654238 -16 -9 2
872 1 -5.623702678927284e-05 -1.3043698116041194 -14.665425596142718 10.3722811410899 -15 -9 3
338 1 -0.001802578462059674 -4.471064060089338 -9.09295506086233 9.242382180473182 -15 -9 3
991 1 8.104968567045068e-05 -2.367542107689351 -14.241669419693483 9.530128191986122 -16 -9 1
1546 1 3.751552054103574e-06 -1.0905039707353628 -13.314810972049704 12.616172603423301 -15 -10 3
110 1 -0.00484572869692227 -6.412323559359014 -8.67809107076617 10.177155649416555 -16 -10 3
43 1 -6.744175324180368e-05 -3.708610499808414 -14.131707006652931 15.150064245975432 -17 -8 1
46 1 -0.0001203394570847144 -4.229855771346223 -15.174343300816497 12.587389504048794 -17 -8 1
561 1 -7.661662450648976e-06 -1.571467040760021 -11.300404867528966 15.296331419577857 -15 -8 2
111 1 0.000179094404411273 -1.8798414796340994 -8.75688304439216 8.904323834661607 -16 -10 3
1588 1 0.0001519508522172669 -3.70540246805445 -13.602260323534024 9.191577566640882 -16 -8 1
928 1 9.828991421053507e-05 -4.058433680609249 -14.253869161842868 11.54082297960328 -16 -9 1
1534 1 -3.257030119616436e-05 -5.596718024507255 -16.00322051958262 14.83570611089235 -16 -8 1
888 1 -5.221036778588553e-05 -2.912444174804996 -15.258224285709762 13.297131675654349 -15 -10 3
406 1 4.704700250044921e-05 -3.0209122783015956 -13.206232521084036 14.526421716208102 -16 -9 1
496 1 -5.579812749219315e-05 -0.3214209343898627 -10.841699246075684 14.882168453044029 -15 -8 2
1013 1 -2.425603466617993e-05 -2.3214953741122466 -12.159866414391795 15.092552737832154 -15 -8 2
557 1 -0.0004458415663077392 -3.1725907152041177 -9.000483248387415 9.021923697729141 -15 -8 2
70 1 1.439004755625362e-06 -0.3205063822534315 -16.587777204076435 14.723969975288874 -16 -8 2
1992 1 -8.600122890752016e-05 -7.849875872968469 -10.308226747653297 11.559828944027172 -15 -10 4
3922 1 0.0002919580681140024 -4.905751399135926 -12.14224617569309 10.756793593979962 -16 -8 2
339 1 0.0003070909731141269 -5.533005033687069 -11.048425820037377 10.582661275223392 -15 -9 3
2059 1 -5.999867617844865e-05 -1.9302463305704884 -13.96870389823704 13.322153096231277 -16 -8 1
3395 1 0.0002300734171076652 -5.298180378633197 -10.34748784825623 9.299108283517786 -16 -8 2
883 1 -7.223234224829067e-05 -0.6889644645941042 -15.786710380604221 10.67428618719302 -16 -8 2
3460 1 0.0002157078396508756 -4.014873781882528 -13.3200486359491 10.749970179380702 -16 -8 2
1540 1 -2.143557960399695e-05 -4.521961662338988 -14.910763128303415 14.309546606228094 -15 -10 3
112 1 0.0006583708203278995 -6.915861217910973 -9.903388822953152 10.49963923307889 -16 -10 3
1536 1 -2.62900313737352e-05 -2.1435942632597156 -16.384758511229478 13.340735315340208 -16 -8 1
182 1 -5.49687508981378e-05 -6.536282315499816 -16.4816810039217 15.100354373159703 -16 -10 3
45 1 4.789776874051382e-05 -0.1264445413797192 -12.568733661927046 12.196102844137668 -17 -8 1
485 1 -7.785240748710981e-05 -2.4207679325175118 -15.23581017669308 8.42007125247892 -15 -8 2
2113 1 -4.01353481111269e-06 -12.555440684692192 -7.168865656562836 -11.452704223343536 -15 -10 4
2167 1 -3.531526221074721e-07 -13.61885754617265 -6.841070436042079 -12.363726863743645 -16 -8 3
1041 1 -1.461927495063214e-05 -13.678854883428311 -3.512437425547962 -15.739657430711937 -15 -10 2
1048 1 7.648898675507998e-06 -15.577641169135552 -4.911701721064822 -14.950428979894024 -15 -10 2
2040 1 -9.389513993304788e-06 -14.874812247741907 -5.414342284840287 -13.763836932145336 -16 -9 3
1128 1 1.356310327337712e-06 -11.368760316675809 -6.0833108149656745 -11.295915637523466 -15 -11 4
2169 1 -1.823161390399064e-06 -13.487990974877468 -5.513716438978825 -13.28408385515669 -16 -8 3
1641 1 -1.521361538150273e-05 -12.48485250523349 -4.696326828849635 -13.555969806976636 -17 -9 2
2289 1 1.248551733797759e-05 -11.144437370960182 -5.329525310096931 -13.47731503258928 -15 -9 4
3025 1 3.276945837916642e-06 -10.43456220819691 -5.883394577487372 -12.252956254897535 -17 -10 2
1656 1 -2.382732644173879e-05 -10.78909395046829 -5.873626933069308 -10.210566569787755 -15 -11 4
1114 1 -1.373994024882197e-05 -12.620655894843363 -3.6983108008679424 -14.848662892809646 -17 -9 2
1653 1 1.914303565891604e-06 -10.514333136284304 -6.830603109488041 -9.398676381914834 -15 -11 4
2164 1 -3.249410444361531e-05 -10.213598449979544 -5.36439010554632 -14.231146047864163 -16 -8 3
1119 1 -1.468774986905508e-05 -10.428218684138345 -4.916220249388712 -15.511083179603217 -15 -11 4
1789 1 -7.823790846142598e-06 -9.628111532149894 -4.871664673681295 -11.930364256344339 -15 -10 4
1718 1 7.541733444752646e-06 -9.507371051753356 -5.143836670731757 -10.301660714069127 -15 -11 4
1657 1 -2.80880409667672e-05 -9.477004683197931 -3.591537332809563 -9.985351432461199 -15 -11 4
1502 1 -2.289294513103945e-05 -15.631500528999545 -6.901715854592017 -13.687232082336864 -16 -9 3
1340 1 -7.804870811423115e-05 -9.578563465373177 -1.152349583089441 -16.71521407105658 -16 -9 3
2770 1 -1.410450474590222e-06 -9.362060105712498 -3.059308448157531 -8.757370669832131 -15 -11 3
1067 1 -1.738525693770893e-06 -8.417992701656688 -5.485020467932022 -15.942856470435661 -15 -11 4
1044 1 -1.420469369151078e-05 -15.016922364039353 -4.337554658596554 -15.99864383356039 -15 -10 2
1589 1 2.41026885545309e-06 -8.785958903658996 -4.046140285880992 -12.645955623775297 -16 -8 2
1043 1 -3.430022172747765e-05 -16.689018125574307 -5.521514311801301 -15.248811096616064 -15 -10 2
1129 1 -1.860981038201773e-05 -8.709066330041688 -5.75671367604326 -14.433804055600161 -15 -11 4
3996 1 -5.290225370171292e-05 -10.842858591002017 -8.24326582795145 -14.766004689788993 -16 -9 3
1501 1 -8.275276527934528e-06 -14.9480904173552 -7.497190044685711 -12.666252990233408 -16 -9 3
1643 1 -4.351255358473263e-05 -11.541950833050308 -4.024438617309069 -15.857283364466983 -17 -9 2
2304 1 -1.766352968757268e-05 -8.475890793668809 -1.9022171811903221 -8.503349172076119 -15 -10 4
162 1 -1.187776536112212e-05 -8.430695409267178 -1.747633730265045 -16.759226310899255 -15 -11 4
2173 1 -5.638492291747815e-06 -12.56430787735628 -8.33675793279272 -10.613788017306053 -16 -8 3
2170 1 -1.655613512525911e-05 -11.418483455552142 -7.910340596493209 -9.782834088580223 -16 -8 3
1121 1 1.268145304320284e-05 -9.554071030617395 -5.137086841402056 -16.62063192486524 -15 -11 4
1671 1 1.36212719436743e-06 -2.309319488442638 -7.807937992168542 -10.624588688569283 -15 -9 3
2851 1 -1.44370860042306e-05 -6.2548199141238126 -0.42072877154459654 -9.007842313830903 -15 -10 4
2290 1 2.252991979641121e-06 -8.339809372216639 -3.164765116782576 -10.662750580077345 -15 -11 3
1140 1 -2.5273241672015e-05 -3.359302329195817 -8.33356923119884 -9.729147852270883 -15 -8 3
2848 1 -2.064062980259435e-06 -7.879903205647347 -3.286154739716821 -11.936319516038417 -15 -10 4
1074 1 -4.281882089340883e-06 -3.205688971892284 -7.612126314177304 -11.799958638138943 -15 -8 3
542 1 -3.61835586833309e-05 -1.6936946880406885 -7.916379961660558 -16.465999248363325 -15 -8 3
2266 1 -1.818418899558055e-05 -0.017406493197257518 -0.2850086140411289 -11.212301603802375 -15 -10 3
176 1 -1.266116692605346e-05 -3.009358550600028 -2.6427828197399514 -16.12797533699699 -16 -10 4
1857 1 -2.867421089695898e-05 -4.251127214049062 -3.6116691086923924 -16.067502367442398 -15 -10 4
1617 1 -6.729919478774826e-06 -1.3572009279286201 -7.915070852342017 -15.052800957205237 -16 -9 3
1859 1 -1.971957693751997e-05 -2.936685479309157 -1.5106798880017787 -15.376900168768438 -15 -10 4
1138 1 -7.447853824216893e-06 -2.4343520096149747 -7.770256510534948 -12.842197879594108 -15 -8 3
1719 1 6.954990809916739e-06 -8.327331599240361 -6.253112934433494 -8.85081656170677 -15 -11 4
2838 1 -9.6939908894559e-06 -8.248349286182131 -5.55793128627109 -9.924643512442772 -15 -11 3
2485 1 -2.418987453969845e-06 -4.282522816043243 -1.2036389383606205 -11.844050530658683 -17 -10 2
1205 1 -2.206225179544885e-05 -6.298542421061106 -6.600799017015557 -14.472775972736112 -15 -11 4
2768 1 -1.810786723770857e-05 -7.4620119936140705 -2.184961520362563 -10.361767840701214 -15 -11 3
1135 1 8.142959651846748e-07 -0.7490324342879582 -7.904092709420821 -12.611334155869626 -15 -8 3
1137 1 -4.050905155178475e-06 -6.348916816603257 -6.680525038481494 -10.261050456605837 -15 -8 3
1345 1 5.86116338782694e-07 -1.6645957188937617 -0.894386890749198 -14.947781788812835 -16 -9 3
611 1 -2.441585713833239e-05 -4.004463715324774 -7.380363721918649 -14.495558903911435 -15 -8 3
2296 1 2.345256177293739e-06 -6.275046045085866 -2.337076865499763 -11.244810457620355 -15 -10 4
2369 1 -1.797388340043019e-05 -5.23884300907779 -1.3824042336012419 -11.010509117083512 -15 -10 4
1136 1 -3.402451972975978e-06 -7.426281485130939 -6.050532171269788 -10.931265915044726 -15 -11 4
1132 1 -7.109148849592309e-06 -5.109585368361462 -6.994292179258897 -13.84508322904422 -15 -8 3
1592 1 -9.231321592764741e-07 -6.685908194366276 -6.4233897583450315 -12.395679435449322 -16 -8 2
2303 1 -1.433676094029362e-05 -4.540615524279549 -1.784037903016831 -13.121304520298397 -15 -10 4
1134 1 -8.226821090827341e-06 -5.570972155953157 -7.202207409040803 -12.566611364595696 -15 -8 3
1862 1 -6.88723129520924e-06 -4.022797395707207 -1.64021099499705 -14.280631229433705 -15 -10 4
3087 1 -1.091776962746857e-05 -4.624312994354608 -7.58170839216986 -9.529204613245454 -15 -10 4
1139 1 -8.908901002392666e-06 -4.786895255566719 -7.489340219464002 -11.725133533335516 -15 -8 3
604 1 5.87545565719147e-07 -5.467938768661232 -5.89345658916055 -15.669416842639745 -15 -11 4
1270 1 4.697827958331791e-06 -5.059111539310393 -4.355760921316733 -15.134589837581728 -16 -9 3
1591 1 3.678156616883078e-06 -6.760762018307282 -5.6398087812434134 -13.53639588278948 -16 -8 2
2302 1 -7.400203029736541e-06 -5.3809781750623555 -0.24009895794067537 -9.923600580064402 -15 -10 4
3094 1 -1.736718808209581e-05 -7.095992513189677 -6.742041458974308 -8.820940353458688 -15 -10 4
605 1 -3.833274974792029e-05 -5.62303782426574 -3.677590671121926 -14.236814385315514 -15 -11 4
2853 1 -1.512355661491965e-06 -7.2891864073375485 -1.476288942787666 -9.222310933480323 -15 -10 4
230 1 -1.546638349989027e-05 -0.5979087732010202 -1.8119916539858882 -15.621749048683869 -16 -10 4
602 1 -1.263032552484972e-05 -7.922916010179019 -5.155328721069261 -13.497350488281782 -15 -11 4
1793 1 1.376958972276396e-05 -5.892509173252696 -2.8661689077744366 -13.418954270939492 -15 -10 4
1792 1 -2.318551217467962e-05 -6.955168067569281 -2.5966897367654243 -12.425472313088727 -15 -10 4
1349 1 -1.592854078456829e-05 -1.5590389138360465 -0.5124613920689971 -13.382457652838463 -16 -9 3
538 1 -1.5406371745302e-05 -4.301548323617663 -7.1252460441213765 -15.835716504299675 -15 -8 3
3083 1 -4.384894486682278e-06 -5.370025946991102 -7.303284887593469 -10.50531958515998 -15 -10 4
2708 1 -2.518273209922359e-05 -0.5038394242438505 -8.263612239115485 -8.95149752135851 -16 -8 1
539 1 -8.864694578274157e-06 -2.4390978615474226 -7.6644759511664375 -14.305838163894263 -15 -8 3
1670 1 4.27004453775609e-06 -0.0717271355594945 -8.155494930514655 -10.310427100398316 -15 -9 3
2706 1 -1.723992970737928e-05 -1.6472100618908772 -7.872752975833695 -8.402414121733063 -16 -8 1
997 1 -1.615025630583022e-05 -6.2762972388103195 -6.682580861539735 -16.556815860354504 -17 -9 2
3211 1 1.30706173287129e-05 -9.599716458012454 -5.376456076233201 -7.460614603456299 -15 -10 4
2690 1 -7.730842064929133e-06 -10.753059395279514 -5.759231495288715 -2.5899579241808017 -15 -10 4
798 1 -5.857528337967211e-05 -11.216150665376436 -4.926744139785229 -1.6382057628239368 -15 -11 3
2748 1 -7.812567929792874e-06 -9.688347607955869 -7.556448050199276 -7.229847727574233 -15 -10 4
2292 1 -2.593848144336747e-05 -9.985513096685382 -3.3467690556820746 -7.396302371129233 -15 -11 3
2688 1 -3.949931030762521e-06 -9.466071992574772 -7.157563488313855 -5.883284955332239 -15 -10 4
2763 1 -2.264808379032202e-08 -9.451571380347378 -5.753573297011546 -6.104825239015824 -15 -11 3
2687 1 -2.695851671141096e-06 -9.515293726417818 -5.76881750155741 -3.257052774296045 -15 -10 4
2691 1 1.384138473684016e-06 -9.378511951812081 -4.421066727481475 -5.068000270967308 -15 -10 4
3276 1 1.007651560157308e-05 -9.277096957322433 -7.945516246971387 -4.6264278658255416 -15 -9 2
1281 1 -7.447824552225812e-06 -9.290484331787926 -3.3110571915206286 -6.176441254714238 -15 -10 3
282 1 -7.879767361240048e-05 -11.609702525490501 -5.172880643624456 -0.2860207965100398 -15 -9 2
2116 1 -4.495897936707127e-05 -10.882509338448171 -4.787622166635049 -7.492219837156401 -15 -10 4
3212 1 2.684904421706991e-07 -9.09930832762883 -4.306454132064127 -3.6442328389981933 -15 -10 4
2613 1 -9.177552264942948e-06 -8.700891126387361 -7.087345798966181 -3.470528159900095 -16 -8 2
1716 1 -1.491660065604597e-05 -9.575776328458677 -6.726151644409273 -8.35964177666518 -15 -11 4
1803 1 1.255541468239002e-05 -5.464774950487108 -0.7493577282832129 -3.4691149503530734 -15 -11 4
4004 1 -4.36907868013748e-05 -0.3172168235303047 -2.903387009221391 -0.6038891553983197 -16 -9 2
2809 1 1.295268575281228e-05 -0.20749413087839272 -6.252115255720075 -3.5430266168650353 -16 -10 3
3091 1 -2.364264148846384e-05 -4.020338989885223 -8.106113876142155 -7.510755233057572 -15 -10 4
3214 1 4.188205876758805e-05 -4.741814675604935 -8.339154176564632 -4.036527374723495 -15 -10 4
3793 1 -4.113650412677396e-05 -8.151580954016277 -8.232402415639388 -1.4475551758806746 -15 -9 2
1663 1 -3.31505647711075e-05 -1.7043964261055204 -6.520384516483052 -7.706613636210945 -15 -9 3
3015 1 -2.047837195388869e-05 -4.623534540270914 -8.318061010118402 -6.39867210166557 -15 -10 4
3596 1 -6.461730416843295e-05 -3.6412357414676437 -8.34569655984033 -2.714989860283874 -16 -9 2
2184 1 -2.769238342680003e-05 -1.9533105981773613 -5.481692473977672 -7.362965028011379 -15 -11 3