LAMMPS data file via write_data, version 2 Aug 2023, timestep = 5000000, units = real

4158 atoms
9 atom types
4356 bonds
8 bond types
7128 angles
12 angle types
10809 dihedrals
14 dihedral types
2904 impropers
7 improper types

-19.060261358085846 19.060261358085846 xlo xhi
-16.6217932897666 16.6217932897666 ylo yhi
-16.65195439762253 16.65195439762253 zlo zhi

Masses

1 12.01115
2 12.01115
3 12.01115
4 12.01115
5 1.00797
6 1.00797
7 1.00797
8 15.9994
9 15.9994

Pair Coeffs # lj/class2/coul/long

1 0.054 4.01
2 0.054 4.01
3 0.064 4.01
4 0.064 4.01
5 0.02 2.3
6 0.013 1.098
7 0.013 1.098
8 0.26 3.61
9 0.24 3.535

Bond Coeffs # class2

1 1.501 321.902 -521.821 572.163
2 1.101 345 -691.89 844.6
3 1.42 400.395 -835.195 1313.01
4 1.417 470.836 -627.618 1327.63
5 1.0982 372.825 -803.453 894.317
6 1.3768 428.88 -738.235 1114.97
7 0.965 532.506 -1282.9 2004.77
8 0.97 563.28 -1428.22 1902.12

Angle Coeffs # class2

1 120.05 44.7148 -22.7352 0
2 105.8 52.7061 -12.109 -9.8681
3 111 44.3234 -9.4454 0
4 111 44.3234 -9.4454 0
5 110.5 46 0 0
6 118.9 61.0226 -34.9931 0
7 117.94 35.1558 -12.4682 0
8 123.42 73.6781 -21.6787 0
9 108.19 53.125 -8.5016 0
10 107.66 39.641 -12.921 -2.4318
11 108.728 58.5446 -10.8088 -12.4006
12 103.7 49.84 -11.6 -8

BondBond Coeffs

1 12.0676 1.501 1.417
2 -9.6879 1.42 0.965
3 0 1.501 1.501
4 2.9168 1.501 1.101
5 0 1.501 1.42
6 68.2856 1.417 1.417
7 1.0795 1.417 1.0982
8 48.4754 1.417 1.3768
9 20.6577 1.3768 0.965
10 5.3316 1.101 1.101
11 23.1979 1.101 1.42
12 -9.5 0.97 0.97

BondAngle Coeffs

1 47.0579 31.0771 1.501 1.417
2 28.58 18.9277 1.42 0.965
3 0 0 1.501 1.501
4 26.4608 11.7717 1.501 1.101
5 0 0 1.501 1.42
6 28.8708 28.8708 1.417 1.417
7 20.0033 24.2183 1.417 1.0982
8 58.479 107.681 1.417 1.3768
9 53.8614 23.9224 1.3768 0.965
10 18.103 18.103 1.101 1.101
11 4.6189 55.327 1.101 1.42
12 22.35 22.35 0.97 0.97

Dihedral Coeffs # class2

1 0 0 4.4072 0 0 0
2 0 0 1.559 0 0 0
3 0 0 3 0 0 0
4 -0.2802 0 -0.0678 0 -0.0122 0
5 0 0 0 0 0.13 0
6 8.3667 0 1.1932 0 0 0
7 0 0 3.9661 0 0 0
8 0 0 4.8498 0 0 0
9 -0.69 0 0.5097 0 0.0095 0
10 -0.2801 0 -0.0678 0 -0.0122 0
11 0.1863 0 -0.4338 0 -0.2121 0
12 0 0 1.8769 0 0 0
13 0 0 1.7234 0 0 0
14 0 0 0 0 0 0

AngleAngleTorsion Coeffs

1 -14.4097 120.05 118.9
2 4.4444 120.05 117.94
3 0 120.05 123.42
4 0 111 120.05
5 0 110.5 105.8
6 0 118.9 118.9
7 -4.8141 118.9 117.94
8 -21.0247 118.9 123.42
9 -4.6072 123.42 108.19
10 -5.8888 111 120.05
11 -10.5093 108.728 105.8
12 0.3598 117.94 117.94
13 4.2296 117.94 123.42
14 0 110.5 120.05

EndBondTorsion Coeffs

1 0 0.2421 0 0 -0.6918 0 1.501 1.417
2 0 -1.797 0 0 -0.4879 0 1.501 1.0982
3 0 0 0 0 0 0 1.501 1.3768
4 0 0 0 0 0 0 1.501 1.417
5 0 0 0 0 0 0 1.501 0.965
6 -0.1185 6.3204 0 -0.1185 6.3204 0 1.417 1.417
7 0 -6.8958 0 0 -0.4669 0 1.417 1.0982
8 0 0.2655 0 0 4.8905 0 1.417 1.3768
9 0.9 -1.3456 1.19 3.4132 0.5873 -0.1323 1.417 0.965
10 1.3997 0.7756 0 -0.5835 1.122 0.3978 1.101 1.417
11 -1.7554 1.3145 0.2263 0.2493 0.6803 0 1.101 0.965
12 0 -0.689 0 0 -0.689 0 1.0982 1.0982
13 0 -1.5867 0 0 4.2641 0 1.0982 1.3768
14 0 0 0 0 0 0 1.42 1.417

MiddleBondTorsion Coeffs

1 0 9.1792 0 1.417
2 0 3.9421 0 1.417
3 0 0 0 1.417
4 0 0 0 1.501
5 0 0 0 1.42
6 27.5989 -2.312 0 1.417
7 0 -1.1521 0 1.417
8 0 4.8255 0 1.417
9 1.158 3.2697 3.5132 1.3768
10 -5.5679 1.4083 0.301 1.501
11 0 0.9241 -0.5889 1.42
12 0 4.8228 0 1.417
13 0 5.5432 0 1.417
14 0 0 0 1.501

BondBond13 Coeffs

1 2.5085 1.501 1.417
2 0.8743 1.501 1.0982
3 0 1.501 1.3768
4 0 1.501 1.417
5 0 1.501 0.965
6 53 1.417 1.417
7 -6.2741 1.417 1.0982
8 -2.2436 1.417 1.3768
9 1.159 1.417 0.965
10 -3.4826 1.101 1.417
11 0 1.101 0.965
12 -1.7077 1.0982 1.0982
13 2.0517 1.0982 1.3768
14 0 1.42 1.417

AngleTorsion Coeffs

1 0 -4.4683 0 0 3.8987 0 120.05 118.9
2 0 -0.1242 0 0 3.4601 0 120.05 117.94
3 0 0 0 0 0 0 120.05 123.42
4 0 0 0 0 0 0 111 120.05
5 0 0 0 0 0 0 110.5 105.8
6 1.9767 1.0239 0 1.9767 1.0239 0 118.9 118.9
7 0 2.5014 0 0 2.7147 0 118.9 117.94
8 0 10.0155 0 0 1.7404 0 118.9 123.42
9 -5.136 -1.0122 0 4.6852 0.023 -0.598 123.42 108.19
10 4.6266 0.1632 0.0461 0.2251 0.6548 0.1237 111 120.05
11 -3.406 1.6396 0.0737 0 -0.281 -0.5944 108.728 105.8
12 0 2.4501 0 0 2.4501 0 117.94 117.94
13 0 1.8729 0 0 2.5706 0 117.94 123.42
14 0 0 0 0 0 0 110.5 120.05

Improper Coeffs # class2

1 7.8153 0
2 4.8912 0
3 13.0421 0
4 0 0
5 0 0
6 0 0
7 0 0

AngleAngle Coeffs

1 0 0 0 120.05 118.9 120.05
2 0 0 0 118.9 117.94 117.94
3 0 0 0 118.9 123.42 123.42
4 0 0 0 111 111 111
5 2.3794 3.0118 2.3794 111 111 107.66
6 0 0 0 111 108.728 110.5
7 2.4259 2.4259 2.1283 107.66 108.728 108.728

Atoms # full

461 1 3 0 -13.25418969319308 -15.718418137812899 -14.162452056561087 -13 -7 4
1135 1 5 0.1268 -15.872920379898963 -14.971585669566021 -12.816853846995574 -12 -6 4
1485 54 8 -0.82 -16.591578879753552 -11.505035858980452 -12.2839680716766 -14 -8 5
462 1 3 -0.1268 -12.514846958802378 -14.813414851213947 -13.33332002746983 -13 -7 4
469 1 9 -0.4506 -14.946105362649861 -12.064305607215836 -14.938211759711388 -13 -7 4
454 1 3 -0.1268 -12.608749588454021 -10.76325217064228 -13.236992678997579 -13 -7 4
482 1 5 0.1268 -12.345568985507345 -15.12137794767975 -12.280242795647201 -13 -7 4
457 1 3 0 -11.900282567153688 -13.653230540195905 -13.7676482459762 -13 -7 4
479 1 5 0.1268 -12.32673378323259 -10.761099330274225 -14.268821587706654 -13 -7 4
486 1 6 0.4241 -14.487758470346918 -12.916146765090636 -14.812322065044384 -13 -7 4
458 1 3 -0.1268 -12.162537951299345 -13.29191424321365 -15.076636203390718 -13 -7 4
451 1 3 0 -13.284837019516509 -10.508711605350603 -10.66221870281089 -13 -7 4
477 1 1 -0.106 -13.633570912605833 -10.269001925378461 -9.223643140058385 -13 -7 4
456 1 3 -0.1268 -12.27682919130811 -11.41988130728684 -11.094195842913983 -13 -7 4
455 1 3 0 -11.929618635506863 -11.616960275885809 -12.409713095636267 -13 -7 4
480 1 5 0.1268 -11.595206643686808 -11.754574416506959 -10.228920659596067 -13 -7 4
473 1 1 -0.106 -11.072997078395204 -12.741519097618463 -12.954965314100056 -13 -7 4
453 1 3 0 -13.724980842447494 -9.979788680738181 -12.956666326222363 -13 -7 4
452 1 3 0.0265 -14.05557196665502 -9.85419198838039 -11.613758452408135 -13 -7 4
463 1 3 0 -14.30062871920575 -9.892745550145618 -15.518218815789494 -13 -7 4
984 54 7 0.41 -17.45731638694226 -11.146426903381556 -12.041180618226694 -14 -8 5
1583 1 5 0.1268 -16.319643699520547 -10.549180807941749 -9.535401327053739 -13 -8 3
4158 113 7 0.41 -15.302053651795331 -12.942578747626362 -10.510951622967944 -12 -5 4
2704 113 7 0.41 -15.165584560559196 -13.051268271641685 -11.952798506170252 -12 -5 3
1505 54 7 0.41 -16.119678867595674 -10.605966612164963 -12.150364799254302 -14 -8 5
4136 113 8 -0.82 -15.007821577654052 -13.590158012964633 -11.176115838947357 -12 -5 4
460 1 3 0.0265 -13.499253871220802 -15.283330494802199 -15.55763559358088 -13 -7 4
481 1 5 0.1268 -11.746066322156981 -12.344035724182628 -15.38012110897951 -13 -7 4
1113 1 3 0 -17.651810044266472 -16.04514106238631 -12.897121501983374 -12 -6 4
470 1 1 -0.106 -14.487089760415246 -9.311951653732983 -14.106405964843667 -13 -7 4
1118 1 3 -0.1268 -16.277715576372174 -15.963941814075216 -12.992211818479827 -12 -6 4
1566 1 3 -0.1268 -15.883147578523596 -11.39430316405001 -9.006684437906241 -13 -8 3
492 1 5 0.053 -10.55348594078225 -13.307234701090096 -12.184184872325062 -13 -7 4
493 1 5 0.053 -10.293025876176271 -12.225764373516405 -13.54492840405294 -13 -7 4
1537 1 5 0.1268 -12.855394720313889 -14.845146995500844 -10.335924273805507 -14 -6 4
468 1 3 0.0265 -14.392540718423724 -11.245266376967715 -15.896818366226944 -13 -7 4
459 1 3 0 -13.067424835240026 -13.990440624604883 -15.87091911555944 -13 -7 4
1141 1 5 0.053 -17.709899588412856 -14.003741902570145 -12.434972537912468 -12 -6 4
498 1 5 0.053 -14.084138767617887 -9.261636656329149 -9.060310893468703 -13 -7 4
487 1 5 0.053 -15.578307288089619 -9.273801830577913 -13.835958955533167 -13 -7 4
1547 1 6 0.4241 -14.934360821247138 -15.070169833599053 -10.056070411270722 -14 -6 4
1520 1 3 -0.1268 -12.822606569863808 -15.984472619147843 -9.921437384175881 -14 -6 4
1122 1 1 -0.106 -18.354993988290055 -14.836521972301894 -12.307117736351142 -12 -6 4
1567 1 3 0 -14.522675154862561 -11.34000080513653 -8.699820053640865 -13 -8 3
472 1 9 -0.4506 -14.256952142366295 -15.976520266926714 -16.475673996694738 -13 -7 4
499 1 5 0.053 -12.729628067105448 -10.22416437913121 -8.54276760886877 -13 -7 4
3135 1 3 0.0265 -18.839411027981832 -8.921809420163374 -10.97947184789355 -13 -7 4
1582 1 5 0.1268 -17.818269960587006 -12.324043092990673 -8.734107724628437 -13 -8 3
1565 1 3 -0.1268 -16.72927435791699 -12.379270566719068 -8.445475425435202 -13 -8 3
464 1 3 -0.1268 -13.818233463312705 -9.011565150485982 -16.51367702394937 -13 -7 4
474 1 9 -0.4506 -15.094546794944616 -8.930354882044963 -11.232667835489162 -13 -7 4
3163 1 5 0.053 -18.730412339311147 -10.785988281518677 -8.759526966647332 -13 -7 4
1521 1 3 -0.1268 -11.575195620104065 -16.573012107924626 -9.688529280067835 -14 -6 4
1127 1 5 0.1268 -17.851018430989214 -16.52418088516541 -10.169545587957359 -12 -6 4
1106 1 3 -0.1268 -18.79633792128458 -15.945002456604946 -10.062302580066842 -12 -6 4
1538 1 5 0.1268 -10.636587636520089 -16.183128612578074 -10.043938289474983 -14 -6 4
1528 1 9 -0.4506 -15.179622554611226 -15.908776579233617 -9.551174739323658 -14 -6 4
1636 1 5 0.053 -10.409586627776605 -9.401703680868318 -14.207219978175152 -14 -8 3
1617 1 1 -0.106 -9.694998067093112 -8.53196727401681 -14.179178777182095 -14 -8 3
1519 1 3 0.0265 -13.925168855228863 -16.57125039744179 -9.430650501938855 -14 -6 4
76 5 8 -0.82 -17.250617934219253 -16.174419930354627 -16.037886411779922 -13 -6 4
97 5 7 0.41 -16.260035258870115 -16.194628044680176 -15.929791251385478 -13 -6 4
3134 1 3 0 -18.795566899514178 -8.412763554243716 -12.293916479696133 -13 -7 4
1730 56 7 0.41 -10.588452512812667 -9.068575905411123 -9.055015469757379 -13 -6 3
584 35 7 0.41 -10.769884401953778 -16.291865015484383 -15.961713888399652 -13 -7 4
2929 5 7 0.41 -17.475620446777256 -16.375584393660397 -15.082545995641784 -13 -8 5
1621 1 5 0.1268 -9.417395899598489 -10.842397227136582 -15.164612975596429 -14 -8 3
674 1 9 -0.4506 -1.3750290328138455 -16.201665409030653 -13.105775767591506 -13 -6 4
653 1 3 0 -0.14280472305559044 -14.547094799174705 -11.828187078570963 -13 -6 4
1633 1 6 0.4241 -9.101712414239719 -14.917661523852143 -14.492254037320741 -14 -8 3
1605 1 3 -0.1268 -5.559235834915389 -13.171350310397834 -15.968959679054576 -14 -8 3
1598 1 3 0 -7.57420695327416 -10.773327666794309 -16.286638790591343 -14 -8 3
1596 1 3 0 -6.373756421276687 -8.680658993539872 -16.08723722821996 -14 -8 3
1208 1 3 -0.1268 -4.773142392248012 -16.596687587504803 -9.727076110218324 -15 -7 3
677 1 1 -0.106 -3.8757341315579232 -15.51555122088984 -11.762435222242157 -13 -6 4
1603 1 3 -0.1268 -5.503298444839023 -15.141296486777573 -14.590748510539916 -14 -8 3
2582 1 6 0.4241 -7.73661049504515 -10.437539039720498 -11.6252114495625 -13 -9 5
3929 1 3 0 -2.7486441781886732 -12.879934562652526 -15.31830310045022 -13 -9 5
3932 1 3 -0.1268 -1.3405896562960535 -10.465081891064639 -15.320874690760276 -13 -9 5
655 1 3 0 -1.3885795982453821 -13.256012445850038 -10.127546310671715 -13 -6 4
651 1 3 0 -2.498229132418956 -14.967116451685772 -11.441832652987028 -13 -6 4
3933 1 3 0 -2.3346726735577725 -10.697498814128082 -14.345215733453827 -13 -9 5
3934 1 3 0.0265 -3.008344985290229 -11.924346248651341 -14.278055756788447 -13 -9 5
699 1 5 0.053 -4.5846749266825775 -14.67413468064581 -11.652676747509874 -13 -6 4
2563 1 9 -0.4506 -8.069814753400731 -11.284790002154073 -11.270444114342059 -13 -9 5
3956 1 6 0.4241 -4.317504906084771 -12.939637697471795 -13.259103707920247 -13 -9 5
3936 1 9 -0.4506 -3.941474187534384 -12.076137529035282 -13.215619694987865 -13 -9 5
656 1 3 -0.1268 -2.5310020812724225 -13.987033561525706 -10.42919321552947 -13 -6 4
652 1 3 0.0265 -1.3524007126890325 -15.211374681991797 -12.139226276157139 -13 -6 4
2656 1 5 0.1268 -1.330709383033092 -8.947451853493368 -11.786103162590805 -13 -9 5
3961 1 5 0.053 -2.8953800822654614 -14.91999478198698 -14.589099533273965 -13 -9 5
1624 1 5 0.1268 -4.892226283506961 -15.972439948224647 -14.139633716691918 -14 -8 3
680 1 5 0.1268 -3.452540519780399 -13.679592782682622 -9.885243010230838 -13 -6 4
3953 1 5 0.1268 -2.6108217835660845 -9.839357347010075 -13.720858404013809 -13 -9 5
693 1 5 0.053 -1.706118622754591 -11.307876026500022 -9.509202645260078 -13 -6 4
2572 1 5 0.1268 -6.178929645875293 -9.729019137152193 -10.051600353983797 -13 -9 5
2558 1 3 0.0265 -7.490829483831991 -11.425007450172291 -10.033865753321628 -13 -9 5
2553 1 3 -0.1268 -6.619052313611681 -10.512286060105156 -9.421204496615479 -13 -9 5
698 1 5 0.053 -3.8761592941711065 -15.700625329136447 -12.829204174152014 -13 -6 4
2667 1 5 0.053 -3.9115948093077293 -8.977775159613024 -11.743139671477252 -13 -9 5
2660 1 5 0.1268 -4.603562085329644 -8.845374672481533 -13.85579209316364 -13 -9 5
1602 1 3 -0.1268 -6.872016843711899 -15.047650410335779 -14.482618155419333 -14 -8 3
1599 1 3 -0.1268 -8.589778731402749 -10.24205456757354 -15.487130345209525 -14 -8 3
3939 1 1 -0.106 -3.4049861180627996 -14.272147184092011 -15.349288815531922 -13 -9 5
1604 1 3 0 -4.87149358072771 -14.14417686533015 -15.272084659050623 -14 -8 3
673 1 1 -0.106 -1.3403241499565048 -12.237457946648075 -9.023485417131273 -13 -6 4
1600 1 3 -0.1268 -8.529056614458286 -8.922954285274045 -15.040461269166999 -14 -8 3
1623 1 5 0.1268 -7.439513972858059 -15.800958415031959 -13.966287880444277 -14 -8 3
1225 1 5 0.1268 -4.671881209815371 -15.584449137435723 -9.322080146041447 -15 -7 3
2634 1 3 -0.1268 -1.4189390039870808 -8.334097887837341 -10.935200886447575 -13 -9 5
1637 1 6 0.4241 -7.1386586234070695 -8.90138678242529 -13.407409241812173 -14 -8 3
1618 1 9 -0.4506 -7.151810835788817 -8.891334420783625 -12.458120662224346 -14 -8 3
3952 1 5 0.1268 -0.9686621328045035 -9.418095897659855 -15.437022623230993 -13 -9 5
1607 1 3 0.0265 -7.606543338492296 -14.029241326393764 -15.084818479457875 -14 -8 3
1615 1 9 -0.4506 -8.973120397115352 -14.116395322446806 -15.107028132794706 -14 -8 3
1606 1 3 0 -6.952066355892125 -13.087142324286429 -15.884388261574156 -14 -8 3
3931 1 3 0 -1.0244437006905152 -11.420367328655711 -16.2735427087184 -13 -9 5
2575 1 5 0.1268 -8.902125835221772 -12.880100606937805 -9.513491671075542 -13 -9 5
3930 1 3 -0.1268 -1.9016949680743664 -12.493901064873079 -16.312730233689365 -13 -9 5
2557 1 3 -0.1268 -8.078619564754947 -12.300148588797573 -9.218786833299859 -13 -9 5
3960 1 5 0.053 -3.1607325217617426 -14.744285891688659 -16.345255204481205 -13 -9 5
654 1 3 -0.1268 -0.2885468236766897 -13.493302577856443 -10.95480305186054 -13 -6 4
694 1 6 0.4241 -0.6791622290767982 -16.08007239454767 -13.810573932541942 -13 -6 4
1639 1 5 0.053 -4.279473880668839 -8.49265123392516 -16.6185919985897 -14 -8 3
1626 1 5 0.1268 -4.9385257650833285 -12.46929164757518 -16.551674190132562 -14 -8 3
1631 1 5 0.053 -8.842394442779508 -12.416506621870612 -16.525048568630655 -14 -8 3
1597 1 3 0.0265 -6.428288690091973 -9.990758288674588 -16.651637289097454 -14 -8 3
488 1 5 0.053 -14.15913067803709 -8.27945963858885 -14.294577837273925 -13 -7 4
3143 1 9 -0.4506 -18.487890364060657 -8.09185566524317 -9.860608228360752 -13 -7 4
1041 1 6 0.4241 -10.374168093970102 -0.24497714002769655 -15.825688241839684 -13 -7 4
494 1 6 0.4241 -14.775983008807579 -8.065055577400706 -11.092806488455162 -13 -7 4
243 1 5 0.053 -12.896255851816354 -0.004236019154394199 -15.404596068096755 -14 -7 4
1697 1 3 0.0265 -15.15623431712633 -1.9152983342858878 -16.36033921900152 -13 -6 3
2354 1 5 0.053 -18.37887655962479 -1.190881082257679 -13.887523434260505 -13 -7 4
3153 1 1 -0.106 -18.76077146716153 -6.850119044553738 -12.484938256666329 -13 -7 4
1692 1 3 -0.1268 -14.90627622979121 -2.552927529363675 -15.128521909837959 -13 -6 3
829 1 5 0.1268 -12.847052678794213 -1.261009448290542 -9.210506508505922 -13 -9 5
816 1 3 -0.1268 -16.35143037125901 -0.8194745432997141 -11.130057065059063 -13 -9 5
835 1 5 0.1268 -16.944590568253755 -1.21521650206639 -11.983297171720306 -13 -9 5
805 1 3 0 -11.053168663287362 -0.45876998640490996 -10.05672885543379 -13 -9 5
2341 1 5 0.1268 -18.472038599944508 -4.353748823531308 -11.154692835753503 -13 -7 4
818 1 3 0.0265 -15.20538082122984 -1.2335598181399607 -9.04942668857089 -13 -9 5
1714 1 5 0.1268 -13.549298610665975 -3.039367563932279 -13.638493341114422 -13 -6 3
821 1 1 -0.106 -15.611127123889434 -3.1622990848672696 -10.610737027238216 -13 -9 5
839 1 5 0.053 -16.04533669719587 -3.8285917365438067 -9.824386106040503 -13 -9 5
3173 1 5 0.053 -17.746803710556886 -6.535996644920541 -12.283383043806207 -13 -7 4
840 1 5 0.053 -16.1500714448309 -3.293803318733426 -11.573250471745247 -13 -9 5
809 1 3 0 -14.19529071301801 -3.5673803272060933 -10.87483600679797 -13 -9 5
822 1 9 -0.4506 -14.615895131370095 -5.970428779356979 -10.55659786554138 -13 -9 5
810 1 3 0.0265 -13.732296766964819 -4.890664999278448 -10.783438224836896 -13 -9 5
808 1 3 -0.1268 -13.310178259849648 -2.572969477730984 -11.072660118277039 -13 -9 5
817 1 3 0 -15.828612224712256 -1.7149382220427665 -10.185465633416488 -13 -9 5
831 1 5 0.1268 -13.598894853664383 -1.542473801998776 -11.101897522091704 -13 -9 5
807 1 3 0 -11.915459560267205 -2.7213843126697554 -11.096509718668285 -13 -9 5
811 1 3 0 -12.342712128194636 -5.10052399010142 -10.867292154283273 -13 -9 5
812 1 3 -0.1268 -11.511970149486553 -4.0251479441205085 -11.073066573296867 -13 -9 5
823 1 1 -0.106 -10.916041659833612 -1.5542171772737294 -11.149369245164303 -13 -9 5
1630 1 5 0.1268 -11.534669490712698 -7.463608885619088 -12.642935700004251 -14 -8 3
1613 1 3 -0.1268 -10.545178626239773 -7.4227506197931845 -12.242627944811005 -14 -8 3
825 1 1 -0.106 -11.750622405850734 -6.4137141833552995 -10.321345708606664 -13 -9 5
1612 1 3 0 -10.525018915480455 -6.883908165298804 -10.876382281837543 -14 -8 3
845 1 5 0.053 -12.481718028343053 -7.2474788644958785 -10.503314273403596 -13 -9 5
1693 1 3 -0.1268 -13.61373492832048 -2.6333852937446895 -14.63507990058021 -13 -6 3
1694 1 3 0 -12.515461036958431 -2.2682404199118906 -15.462570893035796 -13 -6 3
1045 1 5 0.053 -11.341281985459599 -3.3662503931043855 -14.230469045370418 -13 -7 4
1025 1 1 -0.106 -11.165969439710501 -2.453363091927132 -14.788424662902495 -13 -7 4
1046 1 5 0.053 -11.108095190907129 -1.671555039624998 -14.047118438998098 -13 -7 4
841 1 6 0.4241 -15.151750117182809 -5.73553478154316 -9.695271658177106 -13 -9 5
804 1 3 -0.1268 -12.190476674491542 -0.37005650757216557 -9.215657981856818 -13 -9 5
1713 1 5 0.1268 -15.767684528080139 -2.8493942919547024 -14.61675497221475 -13 -6 3
846 1 5 0.053 -11.639774701049458 -6.220181313349851 -9.239177521785471 -13 -9 5
1011 1 3 0 -9.941353663163225 -2.677713333459847 -15.676237783728087 -13 -7 4
843 1 5 0.053 -10.775170545990374 -1.0172583291291772 -12.09192931089382 -13 -9 5
832 1 5 0.1268 -10.422745810074815 -4.139977774861892 -11.177520262599469 -13 -9 5
1032 1 5 0.1268 -10.188586733212045 -4.8468547031241 -15.710345890664783 -13 -7 4
483 1 5 0.1268 -13.739064294560215 -7.986303221857444 -16.288064570632493 -13 -7 4
842 1 5 0.053 -9.993280830500781 -2.1015492242404097 -10.902854866081695 -13 -9 5
3898 1 5 0.053 -18.691964125725583 -6.019163702450673 -15.448705016820316 -13 -7 4
3165 1 6 0.4241 -18.45240662386592 -7.209766855211138 -10.203939443855255 -13 -7 4
3899 1 5 0.053 -18.739889506301072 -4.326972193583289 -15.201391073839899 -13 -7 4
2351 1 5 0.053 -18.862202353285227 -3.074266857169002 -9.276467212845828 -13 -7 4
1635 1 5 0.053 -10.255250393264017 -7.7128791341861245 -14.809638598821586 -14 -8 3
3174 1 5 0.053 -18.86599868845499 -6.686262721105454 -13.571850285804512 -13 -7 4
1012 1 3 -0.1268 -9.607037932335498 -3.964856169722365 -16.04668915575555 -13 -7 4
2666 1 5 0.053 -4.693621818016352 -7.860484413503183 -10.600988359468653 -13 -9 5
1601 1 3 -0.1268 -7.408600896449856 -8.149912990884257 -15.35755649375707 -14 -8 3
1622 1 5 0.1268 -7.222599401675737 -7.135503431290767 -14.923407287349631 -14 -8 3
1608 1 3 0 -9.429261070104403 -8.022855209065012 -12.80551376610004 -14 -8 3
2670 1 6 0.4241 -3.8988593045861606 -6.094685677803117 -8.41721375563194 -13 -9 5
2643 1 3 -0.1268 -7.351257844027119 -2.4281571638213073 -12.792218827166135 -13 -9 5
2642 1 3 0.0265 -4.448626060631206 -5.701169336292667 -14.969823646391935 -13 -9 5
2649 1 1 -0.106 -3.926089347965595 -7.969954266707626 -11.363815411194377 -13 -9 5
1845 83 8 -0.82 -1.1914684473875212 -2.238137729446432 -15.165374019159243 -13 -10 6
171 1 1 -0.106 -3.3258040850779835 -0.9510934209948569 -9.653538384231108 -13 -9 5
1022 1 9 -0.4506 -9.427060018002129 -0.30061071100582737 -15.771660816076508 -13 -7 4
2640 1 3 -0.1268 -4.058240049986633 -5.787992161135003 -12.647967907243258 -13 -9 5
2652 1 9 -0.4506 -4.651035372965167 -5.021728965830452 -16.17525266577517 -13 -9 5
2645 1 3 0 -5.113184296849019 -2.76274630032729 -13.501622160599723 -13 -9 5
2672 1 6 0.4241 -8.554173220860816 -0.09766549661737045 -13.779248717203695 -13 -9 5
2644 1 3 -0.1268 -6.327996360457588 -3.291739695760146 -13.068941901825353 -13 -9 5
189 1 5 0.053 -3.851772104097826 -0.915267340148894 -10.569817886714407 -13 -9 5
2662 1 5 0.1268 -8.294397358852917 -2.7792807531231816 -12.365715948203956 -13 -9 5
3224 71 7 0.41 -6.811253562695828 -1.4343375717266493 -10.657622561273662 -14 -6 4
168 1 3 0.0265 -1.3205746494485844 -2.2282925055288647 -10.85535798408157 -13 -9 5
2653 1 9 -0.4506 -8.350798623956731 -0.30448616340188295 -12.879667963494247 -13 -9 5
1865 83 7 0.41 -1.710511580883626 -2.13903327216004 -16.011025260075293 -13 -10 6
1627 1 5 0.1268 -7.211658612542459 -7.699555001336526 -10.160750413915002 -14 -8 3
2612 83 7 0.41 -1.9113933290446994 -2.361296787385557 -14.569326565957073 -13 -10 6
2633 1 3 0 -0.27471921319118664 -8.151927723822093 -10.23818378411822 -13 -9 5
2669 1 5 0.053 -3.314334244945117 -3.2237325309007367 -14.549811076701488 -13 -9 5
2646 1 3 -0.1268 -4.930633038556174 -1.425298513195333 -13.798088708660318 -13 -9 5
2631 1 3 0 -1.4479221599491119 -6.483506640917737 -8.870839559823676 -13 -9 5
2635 1 3 0 -2.6161446154671424 -7.651192384527514 -10.638994030191984 -13 -9 5
2648 1 3 0.0265 -7.2323177325517936 -1.067812760953819 -13.091512015480934 -13 -9 5
2671 1 6 0.4241 -4.055458353175567 -4.253325061040895 -16.23436843482243 -13 -9 5
2651 1 9 -0.4506 -3.7797127737081517 -6.067765475544206 -9.422661623160106 -13 -9 5
2638 1 3 -0.1268 -4.510266974170635 -7.752481450442229 -13.815868624788472 -13 -9 5
2632 1 3 -0.1268 -0.3028380188947679 -7.263515407509226 -9.123178450115127 -13 -9 5
2392 1 5 0.1268 -9.446099840883491 -1.9658939823844914 -8.813677616131578 -14 -9 4
2636 1 3 0.0265 -2.5852076152706367 -6.711783076080295 -9.610182939921689 -13 -9 5
2663 1 5 0.1268 -6.44876855530482 -4.345512311256254 -12.843467275115051 -13 -9 5
165 1 3 0 -1.154252725222939 -4.01981809016101 -8.809851554215161 -13 -9 5
1619 1 1 -0.106 -5.098574901086378 -7.864493816851512 -16.303051724609322 -14 -8 3
2661 1 5 0.1268 -3.610880200148058 -5.404989920472991 -11.723092972861906 -13 -9 5
1610 1 3 -0.1268 -8.176687287071838 -7.6319387669037635 -10.720254415345236 -14 -8 3
2647 1 3 -0.1268 -6.010001987771684 -0.537652460764459 -13.632039659033406 -13 -9 5
181 1 5 0.1268 -0.6403184677147529 -0.47393562373405373 -9.500214821948425 -13 -9 5
190 1 5 0.053 -3.9630963778616213 -1.1600665219357502 -8.726268418893433 -13 -9 5
1628 1 5 0.1268 -9.213774933710031 -6.600967936560936 -9.157701036392591 -14 -8 3
1611 1 3 -0.1268 -9.30299350496536 -6.9552842558866 -10.198171601423788 -14 -8 3
164 1 3 -0.1268 -0.20089739352620484 -3.9919698819146507 -9.809830010240479 -13 -9 5
2664 1 5 0.1268 -3.902490686269969 -1.0952883697957034 -14.099914412479748 -13 -9 5
2639 1 3 0 -4.207353237386302 -7.155284584286592 -12.630811125572585 -13 -9 5
166 1 3 -0.1268 -2.182118120202439 -3.078390544438369 -8.810759581743442 -13 -9 5
163 1 3 0 -0.24790427944279259 -3.160375964276092 -10.864636445336505 -13 -9 5
1609 1 3 0.0265 -8.278132074558298 -8.179661680682472 -12.01972571635553 -14 -8 3
186 1 6 0.4241 -0.7467311282298716 -0.788879934380267 -11.95359657482923 -13 -9 5
2650 1 1 -0.106 -3.8568506102558953 -3.6071942658512928 -13.678796243578374 -13 -9 5
2637 1 3 0 -4.689814565743378 -7.08091680561715 -14.986450492592553 -13 -9 5
2668 1 5 0.053 -3.1683868299192692 -3.5281107911548517 -12.79627407596968 -13 -9 5
2641 1 3 0 -4.130730780876863 -5.068207930935545 -13.783513878247447 -13 -9 5
3203 71 8 -0.82 -6.95355424383251 -0.7768988627939581 -9.953904181479274 -14 -6 4
1355 71 7 0.41 -7.510347995689781 -0.12172550451765218 -10.428432596251149 -14 -6 4
167 1 3 0 -2.2609454281788537 -2.1043554456708478 -9.791245563692382 -13 -9 5
169 1 9 -0.4506 -1.5142757187820806 -1.3865907541302 -11.923591880042228 -13 -9 5
1010 1 3 0.0265 -9.096614309204806 -1.6402233580514576 -16.075043774019495 -13 -7 4
3403 1 5 0.1268 -0.8170074650722015 -4.120872334067348 -16.182254840541102 -14 -7 4
1588 1 6 0.4241 -16.270379176020203 -12.127934767110668 -4.609012178872689 -13 -8 3
1589 1 6 0.4241 -16.874467894878386 -14.453645775235225 -1.129558819241499 -13 -8 3
1571 1 9 -0.4506 -15.90556380083045 -14.64693753119409 -1.1386751667838588 -13 -8 3
1552 1 3 0.0265 -15.531572879275952 -14.51584829793406 -2.4821649998741435 -13 -8 3
1555 1 3 0 -14.622129713222256 -14.334917987367572 -5.088427309122855 -13 -8 3
1553 1 3 0 -15.210222145405519 -13.313762451357023 -3.0084876754548553 -13 -8 3
1570 1 9 -0.4506 -17.177123269490057 -11.732695889267433 -4.582615078521716 -13 -8 3
1561 1 3 0 -16.675232840956266 -11.258828141335101 -2.266314416917419 -13 -8 3
1569 1 1 -0.106 -15.326157949213659 -11.999879479395243 -2.2573852927165206 -13 -8 3
1562 1 3 0.0265 -17.4721659715956 -11.056127040024588 -3.435700178716507 -13 -8 3
1554 1 3 -0.1268 -14.751646358996947 -13.231620439647791 -4.309504914811193 -13 -8 3
1586 1 5 0.053 -15.183713205008372 -12.257309328262892 -1.1570000916693122 -13 -8 3
1576 1 5 0.1268 -14.349868427599937 -12.256144608682337 -4.591386803868243 -13 -8 3
1560 1 3 -0.1268 -17.089802457236797 -10.577396084503079 -1.1046274995970666 -13 -8 3
1587 1 5 0.053 -14.514728569921957 -11.2631482418306 -2.476547540696126 -13 -8 3
1572 1 1 -0.106 -14.141966528915907 -14.325101580871605 -6.560465299109515 -13 -8 3
1559 1 3 0 -18.177973689320524 -9.731867878513658 -1.0059163420557589 -13 -8 3
1590 1 5 0.053 -13.096539225556317 -14.28642883228049 -6.630079982539138 -13 -8 3
1219 1 5 0.1268 -11.308608217566565 -10.342577466902632 -5.159856440065026 -15 -7 3
1218 1 5 0.1268 -11.405791558214297 -11.935265491598344 -7.290099394522702 -15 -7 3
1197 1 3 -0.1268 -10.918193998998081 -12.191297387143262 -6.32496265328237 -15 -7 3
1198 1 3 -0.1268 -10.988963750450147 -11.3924537223732 -5.215534494880872 -15 -7 3
1324 1 5 0.053 -10.94502588901127 -10.05601444838826 -2.962728725844949 -14 -6 4
1591 1 5 0.053 -14.360637458399763 -15.28109515697697 -6.993534550213473 -13 -8 3
1556 1 3 -0.1268 -14.79060475244501 -15.570930215945241 -4.475160542445703 -13 -8 3
1551 1 3 0 -15.315856101016053 -15.723381941591768 -3.165739868046593 -13 -8 3
1563 1 3 0 -14.823172377163726 -13.24199166986407 -7.273559125310781 -13 -8 3
2802 1 5 0.053 -13.46469745658511 -9.888784031313172 -4.714697419622286 -13 -9 5
3024 1 5 0.1268 -12.392412826648156 -10.112889897915643 -1.4411384530317068 -13 -7 5
1210 1 9 -0.4506 -10.712305338457627 -14.192169405730723 -7.372519251212802 -15 -7 3
2795 1 5 0.1268 -15.063931212344015 -9.920160862283582 -6.499168242155864 -13 -9 5
2784 1 1 -0.106 -13.843338930980526 -9.008826536585655 -4.1885197023418055 -13 -9 5
2801 1 5 0.053 -13.979774805100021 -9.296600327894456 -3.1419675183774647 -13 -9 5
1585 1 5 0.1268 -13.009529998818264 -12.170937874821227 -7.569609944459515 -13 -8 3
1573 1 9 -0.4506 -16.932153228658112 -14.458877635351197 -7.2093996088001475 -13 -8 3
1202 1 3 0.0265 -10.41864308736461 -13.515146706073594 -6.21701501037705 -15 -7 3
1564 1 3 0.0265 -16.152600465867806 -13.390077114264843 -7.666003966080968 -13 -8 3
1228 1 6 0.4241 -10.76554983471213 -15.196773028753096 -7.15749987809575 -15 -7 3
3025 1 5 0.1268 -12.335974156976619 -12.626622723301335 -1.2327381448338972 -13 -7 5
3006 1 3 -0.1268 -12.755944017116686 -10.581395408810332 -0.46733003822916785 -13 -7 5
3007 1 3 -0.1268 -12.720859623647787 -11.990647817805982 -0.5106958894649267 -13 -7 5
1568 1 3 -0.1268 -14.040052054002848 -12.248095896199096 -7.807222611802175 -13 -8 3
1592 1 6 0.4241 -16.386255932696287 -15.310980457247037 -7.3023074486178 -13 -8 3
1199 1 3 0 -10.275047508708486 -11.806849243434623 -4.0896796905720745 -15 -7 3
1323 1 5 0.053 -10.4647030683211 -11.321202505680496 -1.905064232888975 -14 -6 4
1304 1 1 -0.106 -10.157335028745509 -10.81333967905373 -2.8759309369441013 -14 -6 4
2773 1 3 -0.1268 -15.652011435814533 -9.048103218131805 -6.078868455364651 -13 -9 5
1710 56 8 -0.82 -10.487904685436416 -9.43384912459661 -8.174323302609155 -13 -6 3
2657 112 7 0.41 -18.661719484880983 -13.11481761844265 -7.2315740056592315 -13 -8 5
1557 1 3 -0.1268 -18.60082710817645 -10.249727146256884 -3.3001134726973547 -13 -8 3
2943 1 5 0.053 -18.584836072936696 -15.924055348016559 -4.028972913555171 -12 -8 5
2794 1 5 0.1268 -17.16757223285428 -9.098109387625007 -7.636068482268415 -13 -9 5
1226 1 5 0.053 -9.89418106630173 -16.030620362831527 -4.169723029341327 -15 -7 3
1201 1 3 0 -9.731561606920124 -14.023234046281061 -5.0821590598791495 -15 -7 3
1200 1 3 -0.1268 -9.604126920407762 -13.028118339991117 -4.103095596492331 -15 -7 3
2944 1 5 0.053 -18.923830733345675 -14.296597692060292 -4.339614758224268 -12 -8 5
2772 1 4 -0.1268 -16.773308875989798 -8.613916222769216 -6.7125058384444145 -13 -9 5
2774 1 3 0 -15.13259276108712 -8.524126193215821 -4.862031439391645 -13 -9 5
2805 1 6 0.4241 -11.718251587731329 -8.588478863488701 -7.06094443816864 -13 -9 5
2018 1 3 -0.1268 -18.84337931643187 -15.74138850647912 -1.2139141727795355 -13 -7 4