LAMMPS data file via write_data, version 2 Aug 2023, timestep = 150000, units = real

4158 atoms
9 atom types
4356 bonds
8 bond types
7128 angles
12 angle types
10809 dihedrals
14 dihedral types
2904 impropers
7 improper types

-17.327510325532586 17.327510325532586 xlo xhi
-17.327510325532586 17.327510325532586 ylo yhi
-17.327510325532586 17.327510325532586 zlo zhi

Masses

1 12.01115
2 12.01115
3 12.01115
4 12.01115
5 1.00797
6 1.00797
7 1.00797
8 15.9994
9 15.9994

Pair Coeffs # lj/class2/coul/long

1 0.054 4.01
2 0.054 4.01
3 0.064 4.01
4 0.064 4.01
5 0.02 2.3
6 0.013 1.098
7 0.013 1.098
8 0.26 3.61
9 0.24 3.535

Bond Coeffs # class2

1 1.501 321.902 -521.821 572.163
2 1.101 345 -691.89 844.6
3 1.42 400.395 -835.195 1313.01
4 1.417 470.836 -627.618 1327.63
5 1.0982 372.825 -803.453 894.317
6 1.3768 428.88 -738.235 1114.97
7 0.965 532.506 -1282.9 2004.77
8 0.97 563.28 -1428.22 1902.12

Angle Coeffs # class2

1 120.05 44.7148 -22.7352 0
2 105.8 52.7061 -12.109 -9.8681
3 111 44.3234 -9.4454 0
4 111 44.3234 -9.4454 0
5 110.5 46 0 0
6 118.9 61.0226 -34.9931 0
7 117.94 35.1558 -12.4682 0
8 123.42 73.6781 -21.6787 0
9 108.19 53.125 -8.5016 0
10 107.66 39.641 -12.921 -2.4318
11 108.728 58.5446 -10.8088 -12.4006
12 103.7 49.84 -11.6 -8

BondBond Coeffs

1 12.0676 1.501 1.417
2 -9.6879 1.42 0.965
3 0 1.501 1.501
4 2.9168 1.501 1.101
5 0 1.501 1.42
6 68.2856 1.417 1.417
7 1.0795 1.417 1.0982
8 48.4754 1.417 1.3768
9 20.6577 1.3768 0.965
10 5.3316 1.101 1.101
11 23.1979 1.101 1.42
12 -9.5 0.97 0.97

BondAngle Coeffs

1 47.0579 31.0771 1.501 1.417
2 28.58 18.9277 1.42 0.965
3 0 0 1.501 1.501
4 26.4608 11.7717 1.501 1.101
5 0 0 1.501 1.42
6 28.8708 28.8708 1.417 1.417
7 20.0033 24.2183 1.417 1.0982
8 58.479 107.681 1.417 1.3768
9 53.8614 23.9224 1.3768 0.965
10 18.103 18.103 1.101 1.101
11 4.6189 55.327 1.101 1.42
12 22.35 22.35 0.97 0.97

Dihedral Coeffs # class2

1 0 0 4.4072 0 0 0
2 0 0 1.559 0 0 0
3 0 0 3 0 0 0
4 -0.2802 0 -0.0678 0 -0.0122 0
5 0 0 0 0 0.13 0
6 8.3667 0 1.1932 0 0 0
7 0 0 3.9661 0 0 0
8 0 0 4.8498 0 0 0
9 -0.69 0 0.5097 0 0.0095 0
10 -0.2801 0 -0.0678 0 -0.0122 0
11 0.1863 0 -0.4338 0 -0.2121 0
12 0 0 1.8769 0 0 0
13 0 0 1.7234 0 0 0
14 0 0 0 0 0 0

AngleAngleTorsion Coeffs

1 -14.4097 120.05 118.9
2 4.4444 120.05 117.94
3 0 120.05 123.42
4 0 111 120.05
5 0 110.5 105.8
6 0 118.9 118.9
7 -4.8141 118.9 117.94
8 -21.0247 118.9 123.42
9 -4.6072 123.42 108.19
10 -5.8888 111 120.05
11 -10.5093 108.728 105.8
12 0.3598 117.94 117.94
13 4.2296 117.94 123.42
14 0 110.5 120.05

EndBondTorsion Coeffs

1 0 0.2421 0 0 -0.6918 0 1.501 1.417
2 0 -1.797 0 0 -0.4879 0 1.501 1.0982
3 0 0 0 0 0 0 1.501 1.3768
4 0 0 0 0 0 0 1.501 1.417
5 0 0 0 0 0 0 1.501 0.965
6 -0.1185 6.3204 0 -0.1185 6.3204 0 1.417 1.417
7 0 -6.8958 0 0 -0.4669 0 1.417 1.0982
8 0 0.2655 0 0 4.8905 0 1.417 1.3768
9 0.9 -1.3456 1.19 3.4132 0.5873 -0.1323 1.417 0.965
10 1.3997 0.7756 0 -0.5835 1.122 0.3978 1.101 1.417
11 -1.7554 1.3145 0.2263 0.2493 0.6803 0 1.101 0.965
12 0 -0.689 0 0 -0.689 0 1.0982 1.0982
13 0 -1.5867 0 0 4.2641 0 1.0982 1.3768
14 0 0 0 0 0 0 1.42 1.417

MiddleBondTorsion Coeffs

1 0 9.1792 0 1.417
2 0 3.9421 0 1.417
3 0 0 0 1.417
4 0 0 0 1.501
5 0 0 0 1.42
6 27.5989 -2.312 0 1.417
7 0 -1.1521 0 1.417
8 0 4.8255 0 1.417
9 1.158 3.2697 3.5132 1.3768
10 -5.5679 1.4083 0.301 1.501
11 0 0.9241 -0.5889 1.42
12 0 4.8228 0 1.417
13 0 5.5432 0 1.417
14 0 0 0 1.501

BondBond13 Coeffs

1 2.5085 1.501 1.417
2 0.8743 1.501 1.0982
3 0 1.501 1.3768
4 0 1.501 1.417
5 0 1.501 0.965
6 53 1.417 1.417
7 -6.2741 1.417 1.0982
8 -2.2436 1.417 1.3768
9 1.159 1.417 0.965
10 -3.4826 1.101 1.417
11 0 1.101 0.965
12 -1.7077 1.0982 1.0982
13 2.0517 1.0982 1.3768
14 0 1.42 1.417

AngleTorsion Coeffs

1 0 -4.4683 0 0 3.8987 0 120.05 118.9
2 0 -0.1242 0 0 3.4601 0 120.05 117.94
3 0 0 0 0 0 0 120.05 123.42
4 0 0 0 0 0 0 111 120.05
5 0 0 0 0 0 0 110.5 105.8
6 1.9767 1.0239 0 1.9767 1.0239 0 118.9 118.9
7 0 2.5014 0 0 2.7147 0 118.9 117.94
8 0 10.0155 0 0 1.7404 0 118.9 123.42
9 -5.136 -1.0122 0 4.6852 0.023 -0.598 123.42 108.19
10 4.6266 0.1632 0.0461 0.2251 0.6548 0.1237 111 120.05
11 -3.406 1.6396 0.0737 0 -0.281 -0.5944 108.728 105.8
12 0 2.4501 0 0 2.4501 0 117.94 117.94
13 0 1.8729 0 0 2.5706 0 117.94 123.42
14 0 0 0 0 0 0 110.5 120.05

Improper Coeffs # class2

1 7.8153 0
2 4.8912 0
3 13.0421 0
4 0 0
5 0 0
6 0 0
7 0 0

AngleAngle Coeffs

1 0 0 0 120.05 118.9 120.05
2 0 0 0 118.9 117.94 117.94
3 0 0 0 118.9 123.42 123.42
4 0 0 0 111 111 111
5 2.3794 3.0118 2.3794 111 111 107.66
6 0 0 0 111 108.728 110.5
7 2.4259 2.4259 2.1283 107.66 108.728 108.728

Atoms # full

461 1 3 0 -13.598356687361768 -15.784966123379345 -14.617047682309344 -13 -7 4
1135 1 5 0.1268 -16.413868009165135 -15.592808019131834 -13.489214378692814 -12 -6 4
1118 1 3 -0.1268 -16.57782447800542 -16.60849309725736 -13.884909293144712 -12 -6 4
984 54 7 0.41 -15.268544609272077 -12.814042381597194 -12.975386576107187 -14 -8 5
1485 54 8 -0.82 -15.077727711385776 -13.512102057052324 -12.389060396066366 -14 -8 5
1505 54 7 0.41 -14.13511867596862 -13.677567904200739 -12.728044658265745 -14 -8 5
2704 113 7 0.41 -15.153503169340338 -15.826050983516573 -9.860951973159622 -12 -5 3
4136 113 8 -0.82 -15.255943204501165 -16.399417636188698 -10.62589291283074 -12 -5 4
4158 113 7 0.41 -15.564584517668683 -15.782009341404835 -11.37216268253799 -12 -5 4
1566 1 3 -0.1268 -14.734087083537345 -12.079141461993984 -9.45101048025556 -13 -8 3
3376 1 3 -0.1268 -0.4744219845711868 -3.945188465251853 -16.954727196563383 -14 -7 4
1567 1 3 0 -13.39152004114396 -12.227367738929631 -9.286740103323613 -13 -8 3
462 1 3 -0.1268 -12.505938405034343 -15.188993683608501 -14.012586994720968 -13 -7 4
469 1 9 -0.4506 -14.529784100165795 -10.907671696984515 -14.429606511484545 -13 -7 4
454 1 3 -0.1268 -11.381207867798249 -11.068804866584928 -13.755518013620138 -13 -7 4
482 1 5 0.1268 -12.017228779198856 -15.733720734215957 -13.14819079727324 -13 -7 4
457 1 3 0 -11.978161554213152 -14.00416993203867 -14.387345532894187 -13 -7 4
479 1 5 0.1268 -11.109115771618841 -11.0326142112384 -14.861545186423314 -13 -7 4
1583 1 5 0.1268 -15.08308654089708 -11.160793470751361 -9.9447253602614 -13 -8 3
486 1 6 0.4241 -14.818425944001383 -10.09549444682763 -13.990755783407218 -13 -7 4
3163 1 5 0.053 -16.94700809726564 -10.542890219861011 -14.210147293484006 -13 -7 4
458 1 3 -0.1268 -12.652141378882181 -13.263281287206727 -15.391408426760588 -13 -7 4
451 1 3 0 -11.997690439730672 -10.996336192277962 -11.108689121250524 -13 -7 4
477 1 1 -0.106 -12.321865788908482 -11.153411944423372 -9.652064488578544 -13 -7 4
456 1 3 -0.1268 -11.383913808556395 -12.098424304042162 -11.65878014739684 -13 -7 4
455 1 3 0 -11.075407523230801 -12.243688196882298 -13.001886719676445 -13 -7 4
498 1 5 0.053 -12.544646411033694 -10.2267112045796 -9.112163550084405 -13 -7 4
460 1 3 0.0265 -14.229774655043968 -15.062060122026033 -15.622884264565766 -13 -7 4
480 1 5 0.1268 -11.124921366776054 -12.950653970310107 -10.974868483655076 -13 -7 4
473 1 1 -0.106 -10.739075924341469 -13.447202707355178 -13.728116684761385 -13 -7 4
499 1 5 0.053 -11.362715705057877 -11.520878939769492 -9.196526540502646 -13 -7 4
468 1 3 0.0265 -13.834676173267123 -10.556743697758051 -15.571719762551547 -13 -7 4
453 1 3 0 -11.957695599767248 -9.945251197706234 -13.257619264631526 -13 -7 4
452 1 3 0.0265 -12.377867299314975 -9.916411920812493 -11.900403007741744 -13 -7 4
3377 1 3 0 -0.17356307242749835 -4.956422748489837 -16.038523550354256 -14 -7 4
492 1 5 0.053 -10.269648703575113 -14.201351052773934 -12.978337500368548 -13 -7 4
463 1 3 0 -12.964799189814219 -9.472228428834121 -15.57962552029572 -13 -7 4
481 1 5 0.1268 -12.236571332093948 -12.28263573840478 -15.56106891374428 -13 -7 4
459 1 3 0 -13.852783956474667 -13.707193758544548 -15.896659540665405 -13 -7 4
1537 1 5 0.1268 -10.208672097142541 -16.944097924882808 -10.71818559752898 -14 -6 4
493 1 5 0.053 -9.982339103342216 -13.29295551850549 -14.501483420468382 -13 -7 4
472 1 9 -0.4506 -15.29887428278345 -15.4873964855491 -16.318592365443116 -13 -7 4
3143 1 9 -0.4506 -16.182277913719336 -9.162151557276195 -11.375266995644683 -13 -7 4
1039 1 5 0.053 -4.218246000502134 -2.2231067617010876 -17.118822935471158 -13 -7 4
3165 1 6 0.4241 -17.02469286407924 -9.584948143779645 -11.599357152442082 -13 -7 4
467 1 3 0 -13.991865132577086 -11.346427211178018 -16.71936707434609 -13 -7 4
1100 58 7 0.41 -6.12979369703894 -16.606729456796025 -12.949566815806417 -15 -8 4
1078 58 8 -0.82 -5.434097782985804 -16.191145913202302 -13.584572173025883 -15 -8 4
243 1 5 0.053 -10.693797142860129 -0.46938491197163046 -16.39688635664317 -14 -7 4
2270 101 7 0.41 -1.2820259123320312 -17.029553271365934 -16.74541757880846 -12 -8 4
242 1 5 0.053 -10.848830226429833 -0.5075477952728278 -14.6705526511625 -14 -7 4
3402 1 5 0.1268 -1.0748598990883096 -3.094521837304022 -16.669063646555024 -14 -7 4
3742 127 8 -0.82 -7.825264984930708 -15.126610045543895 -15.340494159319679 -15 -4 3
4140 127 7 0.41 -7.946825181780859 -14.300280089884424 -15.844162150921663 -15 -4 4
2651 1 9 -0.4506 -2.2440520148930396 -5.161614486173937 -9.049645896875699 -13 -9 5
2639 1 3 0 -3.7897159791073047 -6.929235178773775 -11.283470336805618 -13 -9 5
1636 1 5 0.053 -9.516011394049709 -8.888016621084441 -15.862124794184792 -14 -8 3
805 1 3 0 -9.431890727826506 -0.41533822490063343 -11.280753041462983 -13 -9 5
491 1 6 0.4241 -15.478577319328641 -16.328840257579188 -15.991230123290606 -13 -7 4
2652 1 9 -0.4506 -5.608669896320633 -5.098848627930417 -14.562230286643306 -13 -9 5
3763 127 7 0.41 -8.36764466951817 -15.685826766786047 -15.897542685043174 -15 -4 3
1626 1 5 0.1268 -4.86807269241134 -11.631731858039235 -16.646256661511725 -14 -8 3
2575 1 5 0.1268 -8.07576363822144 -13.269363565253217 -10.0185282417883 -13 -9 5
2638 1 3 -0.1268 -3.5715261527959914 -7.423516941588542 -12.573215526935478 -13 -9 5
1040 1 5 0.053 -5.465427426987736 -1.0288294911187315 -16.925289734677758 -13 -7 4
3930 1 3 -0.1268 -2.247696731385881 -12.87590911090836 -16.404704611551004 -13 -9 5
654 1 3 -0.1268 -0.7985260626528579 -12.825668400343908 -10.51554073701135 -13 -6 4
3665 59 7 0.41 -7.6703460143913205 -13.87224146607798 -12.238048514700282 -13 -8 6
694 1 6 0.4241 -2.8701131775286903 -15.904225520704285 -12.604862337470859 -13 -6 4
3644 59 8 -0.82 -7.834125310391885 -14.759891502189358 -12.493666159500911 -13 -8 6
3932 1 3 -0.1268 -1.6080607747766056 -10.92128862390755 -15.147541278656812 -13 -9 5
3929 1 3 0 -3.3014828207935434 -13.11535846503709 -15.490612504531775 -13 -9 5
655 1 3 0 -1.7389109574871107 -12.604546803645754 -9.492864522977229 -13 -6 4
674 1 9 -0.4506 -2.063424716249413 -15.944615468659665 -12.043372153783915 -13 -6 4
3953 1 5 0.1268 -2.494133796961137 -10.55366830745896 -13.303497751633838 -13 -9 5
651 1 3 0 -2.9829976631411643 -14.502163272277052 -10.326511076338754 -13 -6 4
3933 1 3 0 -2.513701029172932 -11.222958333250421 -14.15327280144838 -13 -9 5
3934 1 3 0.0265 -3.38314088328082 -12.325343474920956 -14.298238237390379 -13 -9 5
677 1 1 -0.106 -4.254858976669521 -15.358144767309778 -10.197268121114242 -13 -6 4
1618 1 9 -0.4506 -8.20536604886226 -10.850485550257812 -14.036550369237982 -14 -8 3
2557 1 3 -0.1268 -7.253131554249926 -12.662418189493302 -9.643014519583904 -13 -9 5
699 1 5 0.053 -4.9263435395959725 -14.683877250406564 -9.647758904778126 -13 -6 4
2563 1 9 -0.4506 -6.419820796389265 -12.501728351754327 -11.807276140518105 -13 -9 5
2558 1 3 0.0265 -6.31206295087104 -12.096606770035686 -10.509714681104963 -13 -9 5
2582 1 6 0.4241 -5.74678747669137 -12.04624774907705 -12.331548867137752 -13 -9 5
3956 1 6 0.4241 -4.250241368614745 -13.610727749472396 -13.244008326977735 -13 -9 5
2553 1 3 -0.1268 -5.325068060533843 -11.230666527319974 -10.088429463384879 -13 -9 5
698 1 5 0.053 -4.840859158619155 -15.767193997667656 -11.056549479583701 -13 -6 4
3936 1 9 -0.4506 -4.150205383698614 -12.627574705757091 -13.22751947308838 -13 -9 5
1207 1 3 0 -4.066657727083706 -16.57422000154872 -9.202203788146278 -15 -7 3
1637 1 6 0.4241 -8.264579257271562 -10.626407091634931 -14.987812387842087 -14 -8 3
2572 1 5 0.1268 -4.5821988510126594 -10.857510133701052 -10.754683494202476 -13 -9 5
656 1 3 -0.1268 -2.833675168294482 -13.461478697334602 -9.461503720237951 -13 -6 4
652 1 3 0.0265 -1.9543668678953967 -14.793816187895583 -11.232666866641082 -13 -6 4
1627 1 5 0.1268 -8.753987703726908 -10.919653280883644 -11.466912107445797 -14 -8 3
1084 59 7 0.41 -8.236970915728714 -14.770801451269605 -13.391539894689842 -14 -8 4
3961 1 5 0.053 -4.875047308343596 -14.335369703741842 -14.871866453045355 -13 -9 5
2656 1 5 0.1268 -1.3299448695826062 -9.186430623957133 -10.84715211453927 -13 -9 5
1609 1 3 0.0265 -8.613019597311903 -9.733634299436432 -13.337073227135601 -14 -8 3
1610 1 3 -0.1268 -8.817944336012253 -9.856129877649419 -11.923377128949472 -14 -8 3
489 1 5 0.053 -15.700102613112861 -12.661844133694508 -16.523488754370398 -13 -7 4
653 1 3 0 -0.8306005971090968 -13.944218813144658 -11.337784439667091 -13 -6 4
2667 1 5 0.053 -3.3670312123063386 -8.74987372944259 -10.47741472503823 -13 -9 5
3952 1 5 0.1268 -1.1212528435455198 -9.849330177020846 -15.084296521280312 -13 -9 5
1041 1 6 0.4241 -7.2195438490817345 -1.0763123480554952 -15.902354862540635 -13 -7 4
1009 1 3 0 -6.209635412831599 -2.949962219534447 -17.16131211270523 -13 -7 4
3931 1 3 0 -1.4935769278603157 -11.710271078989777 -16.253047555190502 -13 -9 5
3939 1 1 -0.106 -4.321172559805264 -14.18056402105809 -15.856999528103579 -13 -9 5
3960 1 5 0.053 -3.829699987258742 -15.074192723050754 -16.08732305452074 -13 -9 5
2634 1 3 -0.1268 -1.004211987223652 -8.381374712652885 -10.188610258735938 -13 -9 5
1604 1 3 0 -5.167860303603627 -13.74437060265255 -16.975395218110002 -14 -8 3
1605 1 3 -0.1268 -5.357611456927593 -12.40254901908811 -17.24114383315372 -14 -8 3
926 4 8 -0.82 -1.0909378986559268 -2.5405467096787717 -13.865842398096172 -12 -6 6
3650 58 7 0.41 -6.091975146695493 -15.829485098271329 -14.257576203899191 -14 -8 6
1599 1 3 -0.1268 -7.365754947322557 -9.176734290363958 -17.042157751610272 -14 -8 3
2660 1 5 0.1268 -3.0294561688757558 -8.371921941718075 -12.715882485688663 -13 -9 5
693 1 5 0.053 -1.384053532695459 -10.496793454389833 -8.907001184157709 -13 -6 4
1597 1 3 0.0265 -4.941186889580921 -8.927867548401473 -16.92152492079356 -14 -8 3
475 1 1 -0.106 -14.094796474839399 -17.141035201917862 -14.193509960745882 -13 -7 4
3403 1 5 0.1268 -0.8153230971203307 -4.991050893361905 -15.145524996276816 -14 -7 4
470 1 1 -0.106 -12.51271888690563 -8.843887166580581 -14.216269634644583 -13 -7 4
474 1 9 -0.4506 -12.977472636264075 -8.872655707225475 -11.265484483904602 -13 -7 4
3130 1 3 -0.1268 -16.687980414639576 -8.53453584567413 -13.730208656245125 -13 -7 4
815 1 3 0 -14.866525401171637 -0.1182229275873965 -12.140441826213323 -13 -9 5
494 1 6 0.4241 -13.83774850567788 -8.635513648837508 -11.72287806930153 -13 -7 4
245 1 5 0.053 -16.480509154666994 -0.20805095064962487 -13.413257958278834 -14 -7 4
1713 1 5 0.1268 -13.87535678441883 -5.46540390375525 -17.003532535266043 -13 -6 3
464 1 3 -0.1268 -12.260239831652752 -9.166331409332576 -16.705745329681605 -13 -7 4
829 1 5 0.1268 -11.5377175199161 -0.5211349836790085 -11.575834835491282 -13 -9 5
487 1 5 0.053 -13.367360022252566 -8.23580086804952 -13.748347947864184 -13 -7 4
483 1 5 0.1268 -11.51113344159442 -8.386374158503312 -16.660658883957833 -13 -7 4
843 1 5 0.053 -9.472737769300027 -0.992178021232764 -13.287206745683743 -13 -9 5
816 1 3 -0.1268 -14.686740612510029 -1.4685714922686177 -11.967634224494304 -13 -9 5
818 1 3 0.0265 -13.30689123603663 -1.171127050206831 -10.101752644238934 -13 -9 5
835 1 5 0.1268 -15.068282401083474 -2.055437874822408 -12.770133409999161 -13 -9 5
1582 1 5 0.1268 -16.710095276418315 -12.748491047405828 -8.846571781775545 -13 -8 3
3157 1 5 0.1268 -16.77052265602831 -7.992385741415513 -15.745994107566524 -13 -7 4
1714 1 5 0.1268 -11.868269931140233 -5.516166031897837 -15.560740211100825 -13 -6 3
821 1 1 -0.106 -13.59992061166849 -3.5020193187352255 -11.226781122253804 -13 -9 5
2341 1 5 0.1268 -16.660433683357876 -3.6180637546069025 -10.67394021326513 -13 -7 4
3158 1 5 0.1268 -15.248200169876451 -5.877383797703523 -15.442020750454782 -13 -7 4
839 1 5 0.053 -13.864403243452585 -4.086119441384623 -10.30351085394431 -13 -9 5
819 1 9 -0.4506 -12.479179163504236 -1.7053162633675782 -9.097017108699717 -13 -9 5
3159 1 5 0.1268 -14.798982857562335 -5.1601907614242 -13.112987702596202 -13 -7 4
3131 1 3 -0.1268 -16.370845048919147 -7.674923631716087 -14.785147390092629 -13 -7 4
3135 1 3 0.0265 -16.123950454076695 -8.23040924879896 -12.460604545981873 -13 -7 4
2318 1 3 0 -17.23030510860735 -5.734813142469813 -10.73277194999557 -13 -7 4
3134 1 3 0 -15.671541121827815 -6.902765893517881 -12.186510365891444 -13 -7 4
3153 1 1 -0.106 -15.751214852036224 -6.199570259745764 -10.868644121904893 -13 -7 4
3173 1 5 0.053 -15.275296568928852 -6.79608609578664 -10.028186950031015 -13 -7 4
3132 1 3 0 -15.613267791635401 -6.521363293363214 -14.58356825199107 -13 -7 4
3133 1 3 -0.1268 -15.35226369371727 -6.0724702696496315 -13.25582980731959 -13 -7 4
3174 1 5 0.053 -15.046156981639498 -5.34151870132526 -10.844836588279232 -13 -7 4
840 1 5 0.053 -14.220238877724546 -3.9323347552941517 -12.104767972686346 -13 -9 5
488 1 5 0.053 -11.663669361469779 -8.1644246694489 -14.416452213202342 -13 -7 4
809 1 3 0 -12.137046335807852 -3.8967691906048856 -11.559996550248155 -13 -9 5
822 1 9 -0.4506 -12.295221994576675 -6.203991519197281 -10.843915963751137 -13 -9 5
1693 1 3 -0.1268 -11.869987917490885 -4.873139467357548 -16.449362573966607 -13 -6 3
841 1 6 0.4241 -11.78283250256235 -6.904390387370988 -10.415812786216403 -13 -9 5
810 1 3 0.0265 -11.51620291619616 -5.094202902467197 -11.224956754102418 -13 -9 5
808 1 3 -0.1268 -11.394846877822307 -2.8764198394135043 -12.159253268590145 -13 -9 5
1601 1 3 -0.1268 -6.394439530042998 -7.830698003304827 -15.308641649144635 -14 -8 3
817 1 3 0 -13.865617476141512 -2.0414146224858047 -11.036287585871236 -13 -9 5
831 1 5 0.1268 -11.949972165745827 -1.9676198182179316 -12.58595402486819 -13 -9 5
1694 1 3 0 -10.823539313696703 -3.942100716424159 -16.5827922505763 -13 -6 3
1045 1 5 0.053 -9.70773155239203 -4.953772191598299 -14.986770410928276 -13 -7 4
1025 1 1 -0.106 -9.597145589725015 -4.065681323810352 -15.699477283566134 -13 -7 4
1046 1 5 0.053 -9.566505855244538 -3.147853075284047 -15.098432391940944 -13 -7 4
807 1 3 0 -10.019713331469937 -2.7147748943885404 -12.112727247505141 -13 -9 5
811 1 3 0 -10.11839270786287 -5.063031989827804 -11.266126815570942 -13 -9 5
845 1 5 0.053 -9.723567465041981 -6.623960285540534 -9.75261842925511 -13 -9 5
1635 1 5 0.053 -9.203950512330762 -7.097098666261461 -15.49206570045725 -14 -8 3
812 1 3 -0.1268 -9.424307243902946 -3.9038106743947445 -11.68891030608634 -13 -9 5
1630 1 5 0.1268 -8.98080796888986 -6.336416672473947 -13.48627675664505 -14 -8 3
1613 1 3 -0.1268 -8.934315228263573 -7.315883689338396 -13.034059146117453 -14 -8 3
823 1 1 -0.106 -9.19121740925155 -1.480683114361522 -12.368421728321376 -13 -9 5
825 1 1 -0.106 -9.24773680654164 -6.2651325878230715 -10.72738408996763 -13 -9 5
1012 1 3 -0.1268 -7.84798319701779 -5.228377354597699 -17.146717175930927 -13 -7 4
1692 1 3 -0.1268 -13.052369710949009 -4.760443551017374 -17.116240628631154 -13 -6 3
1608 1 3 0 -8.88872320369209 -8.45991660136136 -13.907251434494633 -14 -8 3
1617 1 1 -0.106 -8.855543476617223 -8.186778455268048 -15.38756140638368 -14 -8 3
1612 1 3 0 -9.132424194134401 -7.447310272294375 -11.683270677043886 -14 -8 3
2671 1 6 0.4241 -5.704279890421979 -5.789856233991715 -15.2598352595016 -13 -9 5
1619 1 1 -0.106 -3.929079563344864 -7.387034785497166 -15.13061206498034 -14 -8 3
2650 1 1 -0.106 -5.798792412041218 -3.88286329457277 -12.014827902124381 -13 -9 5
3399 124 8 -0.82 -9.139056071093238 -12.946235603366599 -16.80056131463803 -14 -7 4
2649 1 1 -0.106 -3.3032106738523037 -7.70436910227086 -10.194826050459149 -13 -9 5
1845 83 8 -0.82 -1.1651039871643007 -4.915925607900133 -12.523465335731938 -13 -10 6
2554 1 3 -0.1268 -5.310194873943358 -10.814237698079413 -8.763627864741128 -13 -9 5
1991 1 5 0.053 -16.925634505263176 -11.682291523303974 -16.851027744172733 -15 -7 3
2644 1 3 -0.1268 -4.99644360943916 -1.8094884200458434 -13.266159254848603 -13 -9 5
471 1 1 -0.106 -14.64565465638271 -12.745526796227741 -16.789930832255553 -13 -7 4
2637 1 3 0 -4.144302795238875 -6.796296107614591 -13.66512446510183 -13 -9 5
2635 1 3 0 -1.8631539071082877 -7.3672657092401135 -9.880827812454358 -13 -9 5
1565 1 3 -0.1268 -15.651105451016416 -12.985355010764891 -8.86588975591545 -13 -8 3
1611 1 3 -0.1268 -9.190572355805605 -8.744182175267374 -11.166616429915834 -14 -8 3
1638 1 5 0.053 -3.649273920584788 -6.456736702427444 -15.785647465434424 -14 -8 3
947 4 7 0.41 -1.5368764393320031 -2.083264535968821 -13.131714316030592 -12 -6 6
1312 1 5 0.1268 -7.081440428880185 -6.193331506697515 -9.05106440049967 -14 -6 4
232 1 5 0.1268 -13.120898062172435 -0.4226754107768862 -13.55670944389784 -14 -7 4
2631 1 3 0 -0.05689901744363013 -6.21217457727194 -8.812223814940845 -13 -9 5
2640 1 3 -0.1268 -4.495531231232359 -5.776584848106806 -11.172684931864588 -13 -9 5
2669 1 5 0.053 -6.17859862314557 -4.028543767592579 -11.012734688547692 -13 -9 5
1600 1 3 -0.1268 -7.482369856295838 -8.372189584771853 -15.93371144845151 -14 -8 3
1639 1 5 0.053 -2.960780134087292 -7.952180548268803 -15.29420729577005 -14 -8 3
686 1 6 0.4241 -0.2186570179500329 -15.530173329808466 -9.877861777598982 -13 -6 4
2641 1 3 0 -5.069066180223722 -5.110453033232989 -12.243373828210972 -13 -9 5
1820 18 7 0.41 -7.982954067760678 -16.644383020382673 -12.254502110775924 -14 -7 5
2647 1 3 -0.1268 -4.17354621943673 -0.471526420045393 -10.987064085475449 -13 -9 5
2664 1 5 0.1268 -4.640948182815862 -2.155501697955705 -9.865361736197372 -13 -9 5
2612 83 7 0.41 -0.5679500560080157 -5.152095151102047 -11.798053468945575 -13 -10 6
2661 1 5 0.1268 -4.753722477701961 -5.2781741367825425 -10.251282674557077 -13 -9 5
1010 1 3 0.0265 -7.4492513992455045 -2.929072550778921 -16.450941737631243 -13 -7 4
3406 1 5 0.1268 -0.1479316128521333 -1.0756389416650514 -16.92348125344934 -14 -7 4
2666 1 5 0.053 -3.8457997313901764 -7.467523192752399 -9.30513990377349 -13 -9 5
169 1 9 -0.4506 -1.0678781693749642 -0.904920040220162 -11.273431440966121 -13 -9 5
2392 1 5 0.1268 -7.0901540134766385 -1.7521204416253067 -8.979830376337626 -14 -9 4
2642 1 3 0.0265 -4.85429287566957 -5.629666581944505 -13.523155545448077 -13 -9 5
2643 1 3 -0.1268 -4.516831090286212 -0.5155232524357629 -13.391558513422645 -13 -9 5
34 4 7 0.41 -1.2173632887059505 -3.456897374007312 -13.54457014780435 -12 -7 6
167 1 3 0 -0.8477760291173517 -1.7317815891954602 -9.04339189666355 -13 -9 5
168 1 3 0.0265 -0.40410281640387424 -1.7291956709424774 -10.37763679653941 -13 -9 5
2646 1 3 -0.1268 -4.727855842200393 -1.7627141178069667 -10.900902627007106 -13 -9 5
2668 1 5 0.053 -6.696418768116583 -3.750584136092524 -12.6412514170592 -13 -9 5
1622 1 5 0.1268 -6.519202053231481 -7.257516717941902 -14.379964767106765 -14 -8 3
2636 1 3 0.0265 -1.3920295278554278 -6.257537321414906 -9.231344450851 -13 -9 5
2645 1 3 0 -5.118709664143905 -2.4620344853669884 -12.048422273977447 -13 -9 5
842 1 5 0.053 -8.14102183015285 -1.7905784796038695 -12.35154603033721 -13 -9 5
1628 1 5 0.1268 -9.376652043341302 -8.898506361724657 -10.085625285489227 -14 -8 3
1865 83 7 0.41 -1.9418025068524685 -5.423467087697613 -12.258505286363498 -13 -10 6
832 1 5 0.1268 -8.33926395945516 -3.9361180773285955 -11.613717273121322 -13 -9 5
1011 1 3 0 -8.304715733837252 -4.051600392666332 -16.504991899303935 -13 -7 4
1022 1 9 -0.4506 -7.888665870405012 -1.8076152375546037 -15.805137352246087 -13 -7 4
1596 1 3 0 -5.122817422328286 -8.054440542814385 -15.818989792221371 -14 -8 3
846 1 5 0.053 -8.240293175871297 -5.873523539753654 -10.479592016590022 -13 -9 5
2663 1 5 0.1268 -5.343297833132048 -2.2979573898936216 -14.21864531027921 -13 -9 5
679 1 5 0.1268 -0.022255828510861164 -12.042959818672166 -10.604426918242234 -13 -6 4
2797 1 5 0.1268 -15.48904181239898 -3.870163888571854 -9.0364663961544 -13 -9 5
2662 1 5 0.1268 -4.3406737106874616 -0.07081157579310116 -14.383344043157367 -13 -9 5
186 1 6 0.4241 -0.49503257710633974 -0.12392522078890522 -11.45895205702822 -13 -9 5
804 1 3 -0.1268 -10.696298416745716 -0.018284130917475494 -11.028063593109845 -13 -9 5
3420 124 7 0.41 -9.138332385555469 -11.970547153484773 -17.031471887537823 -14 -7 4
1634 1 6 0.4241 -2.962019105456502 -8.696746901106918 -17.275641205056917 -14 -8 3
1032 1 5 0.1268 -8.578672606344876 -6.0655982395926085 -17.16244726349507 -13 -7 4
3951 1 5 0.1268 -2.1505067092500205 -13.579732959410464 -17.219542102332806 -13 -9 5
830 1 5 0.1268 -7.39315490422568 -0.035999367283761075 -10.866662178320608 -13 -9 5
1568 1 3 -0.1268 -12.965352845958638 -13.41195712475493 -8.69621106297684 -13 -8 3
2670 1 6 0.4241 -1.652676458307603 -4.413270116014305 -9.083438378037764 -13 -9 5
680 1 5 0.1268 -3.5811489525774363 -13.175727523692624 -8.683992813831832 -13 -6 4
1159 1 3 0.0265 -8.547867527030268 -16.838836479137946 -0.2526658884032713 -14 -7 4
3501 1 5 0.1268 -6.784351115494131 -0.7292425762196899 -0.4790331236900762 -13 -7 3
2573 1 5 0.1268 -4.703509769695078 -9.980728403238931 -8.359972926760284 -13 -9 5
1192 1 3 0.0265 -9.175286061844814 -17.148635071790306 -5.444606362322547 -15 -7 3
1588 1 6 0.4241 -14.54711326137436 -12.995310354075228 -5.335052856651151 -13 -8 3
1551 1 3 0 -14.329958330449148 -16.744156297902272 -4.047344766973302 -13 -8 3
1573 1 9 -0.4506 -16.09327063313496 -15.049018208235534 -7.832619255090572 -13 -8 3
1556 1 3 -0.1268 -14.112438114283329 -16.68885594033244 -5.43481761261792 -13 -8 3
1589 1 6 0.4241 -15.485255365638931 -16.039290646948363 -1.9116265309638756 -13 -8 3
1571 1 9 -0.4506 -14.574589325972404 -15.717342406110305 -1.9166306280462422 -13 -8 3
1552 1 3 0.0265 -14.261146138632087 -15.607939087217574 -3.30660567583665 -13 -8 3
1555 1 3 0 -13.600307486774323 -15.632765662140095 -6.02830334631016 -13 -8 3
1553 1 3 0 -13.692785716887316 -14.496540009040494 -3.8966146375176063 -13 -8 3
1570 1 9 -0.4506 -15.147693077212905 -12.26121271636409 -5.5059714919684275 -13 -8 3
1561 1 3 0 -14.534463948809996 -12.132991631185568 -3.0747532324681845 -13 -8 3
1569 1 1 -0.106 -13.486048056143709 -13.211790089942852 -3.104112441951937 -13 -8 3
1562 1 3 0.0265 -15.255233339347754 -11.766348355555397 -4.267317168872641 -13 -8 3
1554 1 3 -0.1268 -13.330103588933648 -14.548298557760772 -5.24806255197767 -13 -8 3
1581 1 5 0.1268 -14.409837590416524 -11.739233233563187 -0.9326843697004108 -13 -8 3
1586 1 5 0.053 -13.228427390018355 -13.342597868333065 -2.0282942869547007 -13 -8 3
1576 1 5 0.1268 -12.800321912327814 -13.664181517065577 -5.588228346388078 -13 -8 3
1560 1 3 -0.1268 -14.809209962687824 -11.418673319586139 -1.894857163761074 -13 -8 3
1587 1 5 0.053 -12.523961163328545 -12.850512964036836 -3.3595487448857284 -13 -8 3
1572 1 1 -0.106 -13.265160193692594 -15.642247138650374 -7.5209569409824475 -13 -8 3
1559 1 3 0 -15.703081668442765 -10.424466467575538 -1.8089688378857396 -13 -8 3
1557 1 3 -0.1268 -16.18207741286386 -10.673178578040474 -4.148132240770721 -13 -8 3
1590 1 5 0.053 -12.224160124158999 -15.757599986626083 -7.762348876558939 -13 -8 3
1558 1 3 -0.1268 -16.33844354493108 -9.984414307444686 -2.9122142174907513 -13 -8 3
2544 1 3 -0.1268 -0.23424337876398837 -9.768126798930226 -4.212086861716259 -13 -9 5
1591 1 5 0.053 -13.698468290847337 -16.469496420487914 -8.076650823614878 -13 -8 3
1219 1 5 0.1268 -10.173606026412791 -10.124051736936629 -5.684881549967544 -15 -7 3
1218 1 5 0.1268 -10.213991581006752 -11.918618396079474 -7.360900511949614 -15 -7 3
2795 1 5 0.1268 -13.757527857140404 -10.202537798813708 -7.410592762482949 -13 -9 5
1578 1 5 0.1268 -16.863388514899516 -10.391906830772047 -4.97175929895254 -13 -8 3
2801 1 5 0.053 -13.087129868144435 -9.661612939450908 -4.19644676738619 -13 -9 5
3224 71 7 0.41 -3.553940088592576 -4.936565098810494 -7.362375968500924 -14 -6 4
1197 1 3 -0.1268 -9.986746154695217 -12.168194482598683 -6.342027327608983 -15 -7 3
1198 1 3 -0.1268 -9.82769215504765 -11.1396261186914 -5.429182798943398 -15 -7 3
1324 1 5 0.053 -9.808595822565358 -9.342163770626591 -3.6385829053820284 -14 -6 4
1563 1 3 0 -13.815280501330388 -14.402375301538681 -8.250076004562358 -13 -8 3
1323 1 5 0.053 -9.946800572415597 -10.263915081857666 -2.1883703415191817 -14 -6 4
1210 1 9 -0.4506 -9.900340725871674 -14.506832258600621 -6.840315373943877 -15 -7 3
1228 1 6 0.4241 -9.890234518752685 -15.331505258221709 -6.21706133376485 -15 -7 3
1592 1 6 0.4241 -17.004757795221714 -14.623795350928317 -7.793564130605116 -13 -8 3
1199 1 3 0 -9.392287156743418 -11.351739224472134 -4.055749100044984 -15 -7 3
1304 1 1 -0.106 -9.350688555568958 -10.192945272337042 -3.0800624394849745 -14 -6 4
1202 1 3 0.0265 -9.731598247689607 -13.511985958170715 -5.977458655241506 -15 -7 3
1564 1 3 0.0265 -15.241693333085765 -14.140889831574064 -8.313398283830898 -13 -8 3
3024 1 5 0.1268 -11.730649727864215 -9.792069421715102 -1.046831316061354 -13 -7 5
2793 1 5 0.1268 -12.613344129177946 -8.622805190530574 -2.521836857623871 -13 -9 5
2773 1 3 -0.1268 -14.455642204641421 -9.494161208738198 -6.987612633852157 -13 -9 5
1208 1 3 -0.1268 -4.577549925281925 -16.664754916843343 -7.965637412630651 -15 -7 3
2785 1 1 -0.106 -16.983502077733274 -6.46634986010354 -5.5502134572092725 -13 -9 5
1585 1 5 0.1268 -11.84314467925486 -13.464109901631065 -8.633980407871482 -13 -8 3
2804 1 5 0.053 -16.971079863302123 -6.494784561014102 -4.453145757023943 -13 -9 5
1440 74 8 -0.82 -14.478024883478366 -6.675066392523192 -1.3768631190119507 -13 -8 6
3025 1 5 0.1268 -11.49894902047382 -12.375725263171802 -1.0649244313690858 -13 -7 5
1168 1 9 -0.4506 -9.575832617283098 -16.31548241318776 -0.9758139807675477 -14 -7 4