thermo_style   custom step pe ke temp etotal evdwl press pxx pyy pzz v_etrue v_eengx v_eengy v_eengz v_sxx v_syy v_szz f_sxx_ave f_syy_ave                f_szz_ave v_etruex v_etruey v_etruez lx ly lz v_dir vol density ebond eangle edihed eimp bonds angles dihedrals impropers
restart        100000 rst1.a.${myid} rst2.a.${myid}
restart        100000 rst1.a.tensile_TP_4k_H2O_bonded_rlxed_erate_2e8_r1 rst2.a.${myid}
restart        100000 rst1.a.tensile_TP_4k_H2O_bonded_rlxed_erate_2e8_r1 rst2.a.tensile_TP_4k_H2O_bonded_rlxed_erate_2e8_r1
dump           6 all atom 10000 dump.${myid} #every picosecond
dump           6 all atom 10000 dump.tensile_TP_4k_H2O_bonded_rlxed_erate_2e8_r1 
dump_modify    6 scale no sort id

#-------------------Run-------------------
timestep       ${mytimestep}
timestep       0.1
run            ${steps}
run            5000000
PPPM initialization ...
WARNING: System is not charge neutral, net charge = -0.7608 (../kspace.cpp:327)
  using 12-bit tables for long-range coulomb (../kspace.cpp:342)
  G vector (1/distance) = 0.19001395
  grid = 10 10 10
  stencil order = 5
  estimated absolute RMS force accuracy = 0.029445772
  estimated relative force accuracy = 8.8675069e-05
  using double precision KISS FFT
  3d grid and FFT values/proc = 800 90
Generated 36 of 36 mixed pair_coeff terms from sixthpower/sixthpower mixing rule
Neighbor list info ...
  update: every = 1 steps, delay = 0 steps, check = yes
  max neighbors/atom: 5000, page size: 100000
  master list distance cutoff = 14
  ghost atom cutoff = 14
  binsize = 7, bins = 5 5 5
  1 neighbor lists, perpetual/occasional/extra = 1 0 0
  (1) pair lj/class2/coul/long, perpetual
      attributes: half, newton on
      pair build: half/bin/newton
      stencil: half/bin/3d
      bin: standard
WARNING: Inconsistent image flags (../domain.cpp:815)
Per MPI rank memory allocation (min/avg/max) = 14.85 | 14.85 | 14.86 Mbytes
   Step         PotEng         KinEng          Temp          TotEng         E_vdwl         Press           Pxx            Pyy            Pzz          v_etrue        v_eengx        v_eengy        v_eengz         v_sxx          v_syy          v_szz        f_sxx_ave      f_syy_ave      f_szz_ave       v_etruex       v_etruey       v_etruez          Lx             Ly             Lz           v_dir          Volume        Density         E_bond        E_angle        E_dihed        E_impro        Bonds      Angles      Diheds      Impros   
         0  -2146.039       3692.5858      298            1546.5468     -129.77896      1126.4349      311.53154      2569.1928      498.58043      0             -8.2013252e-16 -8.2013252e-16 -8.2013252e-16 -31.565933     -260.32346     -50.518662      0              0              0             -7.7715612e-16 -7.7715612e-16 -7.7715612e-16  34.655021      34.655021      34.655021      3              41619.656      1.2443305      2018.8485      1756.3973     -1846.2007      185.48197           4356        7128       10809        2904 
      2000  -2242.7153      3654.2319      294.90476      1411.5166     -126.74316     -1376.7096     -1352.4237     -1147.5419     -1630.1632      3.99992e-05    0.00011181946  0.0015346795   4e-05          137.03021      116.27074      165.17214      0.67468153     0.61167845    -32.310188      0.0001118132   0.0015335031   3.99992e-05    34.658896      34.708205      34.656407      3              41689.857      1.2422352      1973.4799      1697.0383     -1796.1096      190.86667           4356        7128       10809        2904 
      4000  -2197.7283      3675.6651      296.63446      1477.9368     -106.90798     -1620.1332     -643.73492     -1110.7141     -3105.9506      7.99968e-05   -0.0031977918   0.0028209224   8e-05          65.236668      112.55385      314.72098      49.759014     -0.54397092     12.38849      -0.0032029156   0.0028169511   7.99968e-05    34.544201      34.75278       34.657793      3              41606.924      1.2447113      1986.2697      1715.9919     -1748.1556      188.19974           4356        7128       10809        2904 
      6000  -2160.8731      3693.7386      298.09303      1532.8655     -91.238712      1410.595       2315.1697      757.08633      1159.529       0.0001199928  -0.0062420564   0.0037796537   0.00012       -234.59005     -76.717349     -117.49494     -29.613077     -0.50682542    -62.832103     -0.0062616195   0.0037725287   0.0001199928   34.438702      34.786005      34.659179      3              41521.172      1.247282       2006.7627      1782.0686     -1897.4014      197.44753           4356        7128       10809        2904 
      8000  -2268.6349      3698.7946      298.50107      1430.1596     -153.48597      124.96692     -558.01168     -1679.9115      2612.8239      0.0001599872  -0.0089008833   0.0057025655   0.00016        56.539692      170.21615     -264.74523     -21.700839      1.5496124     -36.397244     -0.0089407328   0.0056863674   0.0001599872   34.34656       34.852643      34.660565      3              41491.068      1.2481869      1973.2038      1757.9061     -1890.7149      188.52983           4356        7128       10809        2904 
     10000  -2251.4841      3808.5535      307.35886      1557.0694     -140.338       -456.49174     -1009.2764      681.13206     -1041.3309      0.00019998    -0.012203216    0.0035442102   0.0002         102.26866     -69.012124      105.51645      25.623428      25.029653     -3.3935396     -0.012278287    0.0035379442   0.00019998     34.232118      34.777845      34.661952      3              41265.723      1.2550031      2005.1244      1685.3172     -1784.5088      190.37241           4356        7128       10809        2904 
     12000  -2247.2051      3687.4129      297.58254      1440.2077     -91.942713      3150.487       1637.4029      4671.3923      3142.6658      0.0002399712  -0.012912702    0.0014953346   0.00024       -165.91566     -473.33444     -318.43641     -93.193637     -34.243171     -56.639414     -0.012996796    0.0014942177   0.0002399712   34.207531      34.706842      34.663338      3              41153.54       1.2584242      2004.9116      1752.2388     -1899.0709      191.23684           4356        7128       10809        2904 
     14000  -2209.1544      3645.1813      294.17436      1436.027      -149.78465      334.63193     -2063.4256      953.28229      2114.0391      0.00027996081 -0.0061569847   0.0031791902   0.00028        209.07913     -96.588896     -214.20253     -4.0095474      4.9152968     -52.219987     -0.0061760171   0.0031741472   0.00027996081  34.44165       34.765196      34.664724      3              41506.525      1.2477221      2034.6882      1733.2274     -1831.5885      197.23136           4356        7128       10809        2904 
     16000  -2195.2623      3753.5335      302.91862      1558.2711     -147.57118      30.553371      321.70128     -1731.6077      1501.5666      0.00031994881 -0.0027992494   0.0016988436   0.00032       -32.592574      175.45891     -152.14268      72.505675      54.816017      61.277877     -0.0028031746   0.0016974022   0.00031994881  34.558013      34.713894      34.66611       3              41586.963      1.2453087      2011.7386      1736.5325     -1840.5438      196.40868           4356        7128       10809        2904 
     18000  -2172.1165      3706.8434      299.15063      1534.7269     -92.891679      2251.9717      2490.3653      3798.7734      466.77654      0.00035993522 -0.0035258427  -0.0016791575   0.00036       -252.34373     -384.91843     -47.303875     -7.3784347     -46.637366      2.6674577     -0.0035320731  -0.0016805689   0.00035993522  34.532833      34.596829      34.667496      3              41418.177      1.2503836      2042.8614      1719.1946     -1840.5485      189.3474            4356        7128       10809        2904 
     20000  -2226.5786      3636.9135      293.50712      1410.3349     -141.74284     -442.52588     -926.64681      1340.3679     -1741.2987      0.00039992002 -0.00065924047 -0.0017238476   0.0004         93.892822     -135.81243      176.43743      1.9079989     -19.546426     -23.819077     -0.00065945787 -0.0017253351   0.00039992002  34.632175      34.595281      34.668883      3              41537.128      1.2468028      1977.4363      1759.0503     -1838.7965      186.69797           4356        7128       10809        2904 
     22000  -2195.0166      3737.4372      301.61961      1542.4206     -143.85974      40.900179      194.85583     -1038.6957      966.54036      0.00043990323 -0.0012085712  -0.001200033    0.00044       -19.738633      105.25096     -97.929293      58.669088     -3.019111      -8.9024787     -0.0012093021  -0.0012007537   0.00043990323  34.613138      34.613433      34.670269      3              41537.74       1.2467845      1998.3636      1737.3315     -1818.1315      200.67403           4356        7128       10809        2904 
     24000  -2198.6285      3722.5986      300.42211      1523.9702     -71.829073      350.82558     -1792.1845      2509.9867      334.67449      0.00047988484 -0.0041931558  -0.0010167543   0.00048        181.58782     -254.32974     -33.916361     -34.44783       10.77838      -0.56901711    -0.0042019717  -0.0010172716   0.00047988484  34.509707      34.619785      34.671655      3              41422.872      1.2502419      1977.5341      1744.7677     -1831.6446      190.08306           4356        7128       10809        2904 
     26000  -2224.0711      3685.2246      297.40594      1461.1536     -112.94153      616.52696      233.24828      358.96727      1257.3653      0.00051986485 -0.0078793289   0.00081014985  0.00052       -23.634032     -36.372507     -127.40269     -15.096856     -9.4082583     -33.908529     -0.0079105349   0.00080982185  0.00051986485  34.381962      34.683096      34.673041      3              41346.663      1.2525463      2021.2957      1697.2332     -1835.8173      190.24231           4356        7128       10809        2904 
     28000  -2252.4769      3709.6031      299.37334      1457.1262     -150.35707      1393.1218      2887.1959      1325.991      -33.821707      0.00055984326 -0.0081809272   0.0010323026   0.00056       -292.54566     -134.35659      3.4264242     -40.166405      37.826403     -57.683863     -0.0082145746   0.0010317701   0.00055984326  34.37151       34.690795      34.674427      3              41344.921      1.252599       2021.2477      1710.9547     -1894.6209      202.39855           4356        7128       10809        2904 
     30000  -2215.0762      3654.3754      294.91634      1439.2992     -112.46365     -1475.9863     -2079.6694     -1001.2173     -1347.0722      0.00059982007 -0.0078586897   0.0020093329   0.0006         210.72287      101.44871      136.49247      16.923744     -53.644116     -20.217342     -0.007889732    0.0020073169   0.00059982007  34.382678      34.724654      34.675814      3              41400.376      1.2509212      1969.1802      1726.9157     -1791.5064      192.60454           4356        7128       10809        2904 
     32000  -2235.9369      3743.4828      302.1075       1507.5459     -129.45427     -41.35176       1287.4372     -1138.8163     -272.67618      0.00063979529 -0.0069129534   0.0036851462   0.00064       -130.44511      115.39517      27.633568     -27.64457       34.404092      22.182492     -0.0069369585   0.0036783727   0.00063979529  34.415452      34.782729      34.6772        3              41510.805      1.2475935      2020.6717      1716.6041     -1879.7183      193.66431           4356        7128       10809        2904 
     34000  -2222.7574      3761.5792      303.56793      1538.8219     -173.40275     -745.87027     -1587.2284     -313.68318     -336.69925      0.0006797689  -0.0039424441   0.0029407956   0.00068        160.81989      31.778141      34.11041       10.046686      5.8477915      65.589597     -0.003950236    0.0029364799   0.0006797689   34.518395      34.756934      34.678586      3              41605.758      1.2447462      2011.4077      1738.8986     -1840.6114      192.97524           4356        7128       10809        2904 
     36000  -2252.6013      3648.4219      294.43588      1395.8205     -98.456837      865.44296      1931.7943      1189.7356     -525.20105      0.00071974092 -0.0053122107   0.00080853762  0.00072       -195.73805     -120.54895      53.216995      35.357021      18.591079      41.691371     -0.0053263707   0.00080821093  0.00071974092  34.470926      34.683041      34.679972      3              41461.867      1.249066       1980.9083      1704.5266     -1875.0863      187.25714           4356        7128       10809        2904 
     38000  -2164.2726      3653.6506      294.85785      1489.3781     -140.40217     -1003.4985     -517.46176     -359.68881     -2133.345       0.00075971135 -0.0090575434   0.0018759833   0.00076        52.435742      36.449449      216.16511      11.513109     -53.536827     -33.064856     -0.0090988123   0.0018742259   0.00075971135  34.341131      34.720033      34.681358      3              41351.458      1.252401       2055.7059      1716.099      -1808.5161      192.1423            4356        7128       10809        2904 
     40000  -2107.8006      3771.5806      304.37506      1663.78       -115.70203      1747.6503      1719.7745      2291.2009      1231.9755      0.00079968017 -0.012048591    0.0027992612   0.0008        -174.24943     -232.1492      -124.82336     -14.022708      20.605275     -35.208965     -0.012121763    0.0027953506   0.00079968017  34.237476      34.752029      34.682745      3              41266.285      1.254986       2068.7053      1768.2257     -1869.7692      192.87356           4356        7128       10809        2904 
     42000  -2175.8355      3718.8947      300.12319      1543.0593     -120.43485     -1075.913      -2247.438      -2514.9134      1534.6124      0.0008396474  -0.0097790563   0.0055419831   0.00084        227.7171       254.81906     -155.49917     -67.007785     -38.013         27.725005     -0.0098271853   0.0055266829   0.0008396474   34.316127      34.847078      34.684131      3              41475.865      1.2486444      1987.3768      1723.781      -1795.0798      190.69583           4356        7128       10809        2904 
     44000  -2258.5358      3700.1719      298.61222      1441.6362     -127.81062      664.46948      1457.8264     -856.70384      1392.2858      0.00087961303 -0.0077991514   0.0088663476   0.00088       -147.71676      86.803186     -141.07583      43.814818      44.602186      44.530337     -0.0078297238   0.0088272724   0.00087961303  34.384741      34.962284      34.685517      3              41697.856      1.2419969      1993.6295      1708.3534     -1853.5827      195.16622           4356        7128       10809        2904 
     46000  -2199.5173      3634.2073      293.28873      1434.69       -118.954       -1105.0655     -519.90151     -1812.6095     -982.68547      0.00091957706 -0.0080118201   0.0062775882   0.00092        52.683646      183.66743      99.575305      34.1679        70.217664     -3.5041313     -0.0080440872   0.0062579662   0.00091957706  34.377371      34.872571      34.686903      3              41583.606      1.2454093      2013.5246      1729.371      -1847.0696      180.2184            4356        7128       10809        2904 
     48000  -2170.72        3713.4892      299.68696      1542.7693     -57.822976      501.87304      1672.0567      254.59525     -421.03282      0.00095953949 -0.011062621    0.0033547573   0.00096       -169.42382     -25.799685      42.658568     -21.843136     -65.33589      -7.1142451     -0.011124267    0.0033491427   0.00095953949  34.271645      34.77128       34.688289      3              41336.958      1.2528403      2021.9217      1723.4251     -1805.9862      184.03589           4356        7128       10809        2904 
     50000  -2318.8187      3707.8533      299.23212      1389.0346     -111.58821      1132.3249      165.07074      2454.6327      777.27132      0.00099950033 -0.0082806021   0.0037161317   0.001         -16.727269     -248.71707     -78.758459     -46.136266     -10.851088     -44.867712     -0.0083150768   0.0037092439   0.00099950033  34.368056      34.783803      34.689676      3              41469.832      1.2488261      1959.7599      1746.8712     -1921.9167      182.02021           4356        7128       10809        2904 
     52000  -2213.79        3637.1238      293.5241       1423.3338     -123.26356      741.53939      1371.8836      670.61034      182.12424      0.0010394596  -0.0040849333   0.0034211728   0.00104       -139.00383     -67.947289     -18.451398     -20.360141      4.4257885     -82.157904     -0.0040932994   0.0034153339   0.0010394596   34.513457      34.773581      34.691062      3              41634.704      1.2438808      1956.2063      1741.0204     -1824.6916      190.9633            4356        7128       10809        2904 
     54000  -2256.1151      3770.1299      304.25799      1514.0149     -178.91842      352.66568      1384.5927     -2193.3254      1866.7298      0.0010794172  -0.0012222147   0.0028191256   0.00108       -140.29166      222.24097     -189.14407      63.382463      12.773474     -42.851116     -0.0012229622   0.0028151593   0.0010794172   34.612665      34.752718      34.692448      3              41730.996      1.2410106      1951.5514      1734.9584     -1825.3858      192.65882           4356        7128       10809        2904 
     56000  -2191.4484      3751.1409      302.72553      1559.6925     -108.5487      -881.39589      336.80402     -751.50897     -2229.4827      0.0011193733  -0.0031317858  -0.00020711745  0.00112       -34.129807      76.143434      225.89916      41.953275     -6.1803904      19.016142     -0.0031367002  -0.0002071389   0.0011193733   34.546489      34.647843      34.693834      3              41527.177      1.2471016      2020.8605      1703.8394     -1851.9711      201.82527           4356        7128       10809        2904 
     58000  -2303.7215      3687.9845      297.62867      1384.263      -116.35065      8.3087403     -404.26699     -595.74614      1024.9393      0.0011593277  -0.0063417086  -0.0013560948   0.00116        40.960151      60.361733     -103.85415     -32.623525      18.898589      7.9791606     -0.0063619027  -0.0013570151   0.0011593277   34.435249      34.608025      34.69522       3              41347.542      1.2525197      1952.8255      1693.5052     -1813.1363      191.22882           4356        7128       10809        2904 
     60000  -2237.5032      3709.8458      299.39293      1472.3426     -155.05097      1303.5363      1355.9267      377.73495      2176.9472      0.0011992806  -0.0058236885  -0.0017117891   0.0012        -137.38221     -38.266961     -220.57213     -25.999394     -21.91462       14.822089     -0.0058407123  -0.0017132559   0.0011992806   34.453201      34.595699      34.696607      3              41356.015      1.252263       1981.4056      1727.1901     -1829.0395      197.46542           4356        7128       10809        2904 
     62000  -2177.6961      3690.6918      297.84715      1512.9958     -111.69576      1346.773       1490.4283      835.52539      1714.3652      0.0012392318  -0.0032799161  -0.0006856651   0.00124       -151.01941     -84.661384     -173.70983      14.401003     -15.618689      16.448757     -0.0032853068  -0.00068590027  0.0012392318   34.541355      34.631259      34.697993      3              41506.107      1.2477347      2040.7452      1751.4642     -1866.3786      199.83159           4356        7128       10809        2904 
     64000  -2226.8822      3673.4707      296.45737      1446.5884     -160.53693     -116.70965      225.60339      124.04214     -699.77448      0.0012791815  -0.0040165826   0.00015854369  0.00128       -22.860719     -12.57002       70.903218      27.560982      24.978658      16.599928     -0.0040246708   0.00015853113  0.0012791815   34.515826      34.660515      34.699379      3              41512.127      1.2475537      2034.6403      1713.4597     -1879.4288      198.37268           4356        7128       10809        2904 
     66000  -2284.9816      3627.9774      292.78596      1342.9959     -90.980602      1584.8584      1872.5272      1370.4073      1511.6408      0.0013191296  -0.0082913762  -0.003803554    0.00132       -189.73563     -138.85834     -153.16884     -9.9154724      22.813887      26.012513     -0.0083259408  -0.0038108059   0.0013191296   34.367683      34.523208      34.700765      3              41171.857      1.2578643      2025.0327      1725.6397     -1914.2999      188.47959           4356        7128       10809        2904 
     68000  -2248.134       3706.166       299.09596      1458.032      -114.23148      696.78214      197.29382      2048.1549     -155.10224      0.001359076   -0.0068527336  -0.0047233983   0.00136       -19.986033     -207.52466      15.720478     -57.680135     -90.484584     -77.476985     -0.0068763214  -0.0047345887   0.001359076    34.417539      34.491331      34.702151      3              41195.158      1.2571528      1960.6969      1724.8196     -1810.1895      194.99985           4356        7128       10809        2904 
     70000  -2212.6299      3707.1361      299.17424      1494.5062     -124.41829     -686.09332     -2440.7784      1296.0095     -913.51102      0.0013990209  -0.0033213617   0.00020991125  0.0014         247.31013     -131.31997      92.559716      0.22884534     0.35877784     2.5005227     -0.0033268897   0.00020988922  0.0013990209   34.539919      34.662295      34.703538      3              41548.216      1.2464701      1990.6505      1758.4821     -1831.3983      188.54055           4356        7128       10809        2904 
     72000  -2331.7612      3638.7579      293.65597      1306.9966     -166.33619     -1258.6929     -2063.0353     -1822.8517      109.80823      0.0014389642  -0.0017974784   0.0054264898   0.00144        209.03662      184.70001     -11.126743      53.273043      4.755218       57.679762     -0.0017990958   0.0054118194   0.0014389642   34.592729      34.843076      34.704924      3              41830.437      1.2380604      1874.4868      1674.4471     -1765.8563      188.05237           4356        7128       10809        2904 
     74000  -2280.865       3727.8337      300.84459      1446.9687     -85.41957       90.203302      848.0855      -657.54076      80.065163      0.0014789059  -0.0042234321   0.0053763042   0.00148       -85.929105      66.628504     -8.1094956      3.5913292      69.832363     -26.282166     -0.004232376    0.0053619035   0.0014789059   34.508658      34.841337      34.70631       3              41728.36       1.241089       1953.4162      1741.0422     -1855.1727      191.09118           4356        7128       10809        2904 
     76000  -2229.4618      3705.7394      299.06153      1476.2777     -131.82172     -337.99108     -1810.9684     -380.50494      1177.5001      0.001518846   -0.0037705969   0.0015364276   0.00152        183.49596      38.554264     -119.3106      -33.050784      17.544741     -4.8074646     -0.0037777235   0.0015352485   0.001518846    34.524351      34.708266      34.707696      3              41589.55       1.2452313      1961.5495      1750.5401     -1817.6983      193.99618           4356        7128       10809        2904 
     78000  -2301.5973      3656.5742      295.09379      1354.9769     -160.16855      294.07425     -1067.2471      290.84962      1658.6202      0.0015587845  -0.0039557662  -0.0028793707   0.00156        108.13541     -29.473615     -168.0631       47.631484      20.193259      36.23525      -0.003963611   -0.002883524    0.0015587845   34.517933      34.555236      34.709082      3              41400.138      1.2509284      1978.675       1726.2707     -1886.9299      188.30056           4356        7128       10809        2904 
     80000  -2250.205       3697.8946      298.42843      1447.6896     -77.033592      3904.218       4559.9615      2368.1848      4784.5076      0.0015987214  -0.0067426074  -0.0086693351   0.0016        -462.03125     -239.94946     -484.78363     -35.644467     -25.237666     -41.266376     -0.0067654415  -0.0087071324   0.0015987214   34.421355      34.354585      34.710469      3              41046.218      1.2617145      2070.4752      1732.696      -1939.9976      197.56419           4356        7128       10809        2904 
     82000  -2218.3664      3690.1384      297.80249      1471.772      -103.34606      1505.8207      1618.4102      2047.7884      851.26355      0.0016386567  -0.0034299103  -0.0086164647   0.00164       -163.98761     -207.49446     -86.256518     -45.808457     -49.703904     -102.2809      -0.0034358059  -0.0086538011   0.0016386567   34.536157      34.356417      34.711855      3              41186.956      1.2574032      2011.4035      1744.1902     -1872.9803      188.08656           4356        7128       10809        2904 
     84000  -2307.4381      3698.7719      298.49924      1391.3338     -161.40317     -681.63413      618.70934      186.11421     -2849.7259      0.0016785904  -0.0010593666  -0.0044826351   0.00168       -62.695333     -18.862676      288.74396      26.849079     -22.776875      17.174585     -0.0010599282  -0.0044927122   0.0016785904   34.618308      34.499675      34.713241      3              41458.731      1.2491605      1903.6529      1690.1341     -1739.0494      191.84203           4356        7128       10809        2904 
     86000  -2294.9289      3622.4757      292.34196      1327.5468     -139.71075      1750.7921      1996.1128      1361.2186      1895.045       0.0017185225   0.0014086111  -0.0026365156   0.00172       -202.24978     -137.91907     -192.00936      12.317449      15.793232      51.128416      0.0014076199  -0.0026399973   0.0017185225   34.703836      34.563652      34.714627      3              41639.894      1.2437258      1960.8952      1763.7412     -1900.5377      192.09827           4356        7128       10809        2904 
     88000  -2224.206       3684.9989      297.38773      1460.7929     -77.515299      677.44054     -414.53907      2345.5474      101.31325      0.001758453   -0.0023122762  -0.001559569    0.00176        42.003627     -237.66215     -10.265131      76.926613     -13.350765      27.046057     -0.0023149537  -0.0015607864   0.001758453    34.574889      34.600974      34.716013      3              41531.628      1.2469679      1989.6626      1773.9373     -1859.1282      196.79862           4356        7128       10809        2904 
     90000  -2334.5975      3732.3754      301.21111      1397.7779     -133.27461     -1889.3386      1328.2243     -4199.637      -2796.6029      0.0017983819  -0.0073473981  -7.9907446e-05  0.0018        -134.58711      425.52334      283.36101     -29.242861     -9.5678283      12.944514     -0.0073745232  -7.9910639e-05  0.0017983819   34.400396      34.652251      34.7174        3              41384.918      1.2513885      1949.419       1676.7782     -1770.2223      192.53643           4356        7128       10809        2904 
     92000  -2278.5996      3593.611       290.01251      1315.0113     -90.178359      1130.2322      1030.9282      680.74458      1679.0238      0.0018383093  -0.010134794    0.0004993707   0.00184       -104.45348     -68.971094     -170.12167     -11.627718      6.048151      -55.223256     -0.0101865      0.00049924605  0.0018383093   34.303799      34.672326      34.718786      3              41294.264      1.2541357      2005.2941      1745.2391     -1886.5094      195.07243           4356        7128       10809        2904 
     94000  -2237.9417      3683.8641      297.29614      1445.9223     -88.516611      2141.2763      623.59508      3185.9493      2614.2844      0.001878235   -0.0098114928   0.0025131776   0.00188       -63.186355     -322.8169      -264.89299     -34.963902     -22.574314     -71.430805     -0.0098599427   0.0025100249   0.001878235    34.315003      34.742115      34.720172      3              41392.548      1.2511578      1959.1372      1689.5218     -1834.8421      206.19476           4356        7128       10809        2904 
     96000  -2313.7912      3728.7563      300.91905      1414.9652     -155.48604     -603.17008      542.66528     -448.27233     -1903.9032      0.0019181592  -0.008554151    0.0065700237   0.00192       -54.984852      45.42191       192.9137      -1.3418472      33.348344     -31.37684      -0.0085909478   0.0065485352   0.0019181592   34.358576      34.882705      34.721558      3              41614.485      1.2444852      2022.8407      1684.1867     -1849.0032      188.46031           4356        7128       10809        2904 
     98000  -2271.5302      3764.2937      303.787        1492.7635     -134.21601     -1277.1945     -1367.0383     -2223.8948     -240.65042      0.0019580817  -0.0093334561   0.0063344401   0.00196        138.51944      225.34043      24.388195      16.988078      36.385315     -42.136858     -0.0093772857   0.0063144618   0.0019580817   34.33157       34.874541      34.722944      3              41573.702      1.245706       2004.8219      1681.3689     -1815.7045      196.51762           4356        7128       10809        2904 
    100000  -2279.2553      3764.7012      303.81988      1485.4459     -79.202242      2582.4676      3920.6604      365.95646      3460.7858      0.0019980027  -0.011431918    0.0017866558   0.002         -397.26937     -37.088681     -350.6723       16.584684      20.23669       57.281693     -0.011497764    0.0017850616   0.0019980027   34.258847      34.716937      34.724331      3              41299.808      1.2539673      2005.3422      1742.2756     -1876.4961      201.73498           4356        7128       10809        2904 
    102000  -2308.3117      3677.3251      296.76843      1369.0134     -138.89155     -389.85099      1965.9063     -1706.3427     -1429.1165      0.002037922   -0.0083562146  -0.00038119685  0.00204       -199.19414      172.89652      144.80652     -78.506253     -28.826127     -16.435743     -0.0083913235  -0.00038126953  0.002037922    34.365436      34.64181       34.725717      3              41340.303      1.252739       2003.1474      1735.8526     -1841.1642      187.18289           4356        7128       10809        2904 
    104000  -2295.407       3800.2424      306.68814      1504.8354     -112.2712      -1058.0589     -354.82387     -1537.4785     -1281.8744      0.0020778398  -0.0039231811  -0.0032145084   0.00208        35.957064      155.78937      129.89037      9.5064947      42.860386     -17.471586     -0.0039308969  -0.003219686    0.0020778398   34.519063      34.543622      34.727103      3              41409.065      1.2506587      1909.963       1753.9159     -1764.5553      186.45775           4356        7128       10809        2904 
    106000  -2256.7206      3734.2448      301.36198      1477.5242     -91.323366      524.66121      1046.4997      103.64555      423.83836      0.002117756   -0.00099890467 -0.008480388    0.00212       -106.03926     -10.504602     -42.948014     -5.7758441     -16.198971      4.4187066     -0.00099940391 -0.008516551    0.002117756    34.620404      34.361133      34.728489      3              41312.882      1.2535705      1995.6175      1710.7316     -1826.6868      197.99596           4356        7128       10809        2904 
    108000  -2230.6505      3645.5583      294.20478      1414.9078     -92.212447      1358.0521      2157.6023      2115.0247     -198.47062      0.0021576706   0.0031196517  -0.009065572    0.00216       -218.62024     -214.30605      20.108905     -13.867327     -22.921082     -46.969885      0.0031147957  -0.0091069144   0.0021576706   34.763132      34.340853      34.729875      3              41460.373      1.249111       2031.7126      1729.7814     -1857.5188      197.57892           4356        7128       10809        2904 
    110000  -2168.823       3693.8694      298.1036       1525.0465     -130.25604     -1115.3652      419.3073      -2947.0993     -818.30369      0.0021975835   0.004168888   -0.0068675344   0.0022        -42.480568      298.62064      82.920316      56.069206     -30.146078     -16.255847      0.0041602222  -0.0068912245   0.0021975835   34.799494      34.417026      34.731262      3              41597.461      1.2449945      2035.7761      1753.7533     -1820.5189      185.8681            4356        7128       10809        2904 
    112000  -2238.3382      3723.118       300.46402      1484.7798     -131.70794     -1658.2331     -3640.766      -1368.9924      35.05917       0.0022374949  -0.00019853527 -0.005645384    0.00224        368.89538      138.70783     -3.5576505      49.621257      3.501233       8.3717483     -0.00019855499 -0.0056613794   0.0022374949   34.64814       34.45938       34.732648      3              41469.164      1.2488462      1960.7234      1715.5123     -1779.3115      192.17956           4356        7128       10809        2904 
    114000  -2255.4138      3672.3234      296.36478      1416.9096     -79.079504      842.6391       1632.4864     -737.77785      1633.2087      0.0022774047  -0.0044529063  -0.002448508    0.00228       -165.41144      74.75558      -165.48464     -21.711709     -68.81149      -17.439062     -0.0044628501  -0.0024515105   0.0022774047   34.500705      34.570168      34.734034      3              41427.114      1.2501138      2007.1055      1728.6596     -1868.0218      200.09724           4356        7128       10809        2904 
    116000  -2274.2834      3775.6914      304.70682      1501.408      -85.257517      1855.4952      3546.1318      687.32398      1333.0299      0.002317313   -0.0053644639   0.0018907082   0.00232       -359.30724     -69.638609     -135.06465     -18.724087      7.7292888     -13.953697     -0.0053789043   0.0018889231   0.002317313    34.469115      34.720543      34.73542       3              41570.879      1.2457906      1991.588       1729.4147     -1873.9329      192.29497           4356        7128       10809        2904 
    118000  -2161.5895      3784.3653      305.40682      1622.7758     -92.008288     -679.90691     -679.63617     -1690.0915      330.00692      0.0023572196  -0.0063507487   0.0027026738   0.00236        68.862833      171.24721     -33.43926       36.025569      70.177443      15.543707     -0.0063710005   0.0026990281   0.0023572196   34.434935      34.748682      34.736806      3              41564.972      1.2459676      2035.7935      1752.0551     -1805.5683      185.83258           4356        7128       10809        2904 
    120000  -2285.5056      3692.2453      297.97253      1406.7398     -98.35483       407.39854      39.026448      843.80448      339.36469      0.0023971246  -0.0065088139  -0.00026191193  0.0024        -3.9567028     -85.500735     -34.388359     -25.179333     -0.48975485     24.62302      -0.0065300886  -0.00026194624  0.0023971246   34.429458      34.645944      34.738193      3              41437.143      1.2498113      2011.607       1690.6103     -1829.4146      192.80463           4356        7128       10809        2904 
    122000  -2238.154       3642.4127      293.95092      1404.2587     -58.860954      728.20193      522.00305      1641.767       20.835737      0.002437028   -0.0056039306  -0.0022262119   0.00244       -52.888139     -166.34836     -2.1074368     -23.760134     -10.662393     -40.317809     -0.0056196916  -0.0022286936   0.002437028    34.460816      34.577871      34.739579      3              41395.045      1.2510823      1994.8163      1733.8472     -1810.4317      197.80984           4356        7128       10809        2904 
    124000  -2178.6428      3717.1003      299.97838      1538.4575     -86.151588      624.99956      544.61461      654.1095       676.27455      0.0024769299  -0.002709916   -0.0031614276   0.00248       -55.184142     -66.278668     -68.52452      -9.1730358     -27.611481      45.311295     -0.0027135945  -0.0031664354   0.0024769299   34.561108      34.545461      34.740965      3              41478.261      1.2485723      2050.4681      1757.8961     -1854.3895      193.07421           4356        7128       10809        2904 
    126000  -2263.3866      3706.7427      299.1425       1443.3561     -134.41708     -1034.3494     -2926.4615     -1080.1302      903.54337      0.0025168301  -0.0022282741   0.00032467425  0.00252        296.52241      109.44294     -91.552833      41.280409     -32.275546      24.411335     -0.0022307604   0.00032462155  0.0025168301   34.5778        34.666272      34.742351      3              41645.08       1.2435709      2032.3919      1687.0284     -1819.3972      194.72331           4356        7128       10809        2904 
    128000  -2211.2924      3661.7821      295.51408      1450.4897     -66.455651     -808.04401      1501.2101     -1201.7644     -2723.5778      0.0025567288  -0.0049520967   0.0031727444   0.00256       -152.10805      121.77085      275.96862      17.517987      40.985516      35.85451      -0.004964399    0.0031677219   0.0025567288   34.483406      34.764972      34.743738      3              41651.301      1.2433851      2038.534       1713.4135     -1865.2941      191.97488           4356        7128       10809        2904 
    130000  -2224.6318      3694.6204      298.1642       1469.9886     -94.100926     -967.14275     -1170.06        619.43211     -2350.8004      0.0025966258  -0.0076076273   0.0039487232   0.0026         118.55235     -62.767941      238.191        0.10191881    -13.077193     -31.748085     -0.0076367129   0.0039409475   0.0025966258   34.391378      34.791864      34.745124      3              41573.935      1.245699       2022.7015      1716.6911     -1828.7419      193.4201            4356        7128       10809        2904 
    132000  -2319.7098      3661.2422      295.4705       1341.5324     -90.177723      834.6176      -326.09691      1576.1459      1253.8038      0.0026365213  -0.010730203    0.0040169116   0.00264        33.044534     -159.70025     -127.03884     -26.629659     -0.14168435     19.136363     -0.010788186    0.0040088654   0.0026365213   34.283165      34.794227      34.74651       3              41447.591      1.2494962      1931.339       1708.7198     -1793.8115      186.7908            4356        7128       10809        2904 
    134000  -2190.5477      3666.7055      295.91141      1476.1578     -80.223122     -1349.9713     -2068.4722     -2250.581       269.13918      0.0026764152  -0.0098038563   0.0038233136   0.00268        209.589        228.04118     -27.269457     -31.794314      19.245742      46.146103     -0.0098522305   0.0038160233   0.0026764152   34.315268      34.787518      34.747896      3              41480.057      1.2485183      2004.2392      1715.3507     -1761.0835      193.77192           4356        7128       10809        2904 
    136000  -2222.551       3657.0327      295.13079      1434.4817     -112.46479      303.7662       10.080063      1779.9892     -878.77064      0.0027163075  -0.0074386652   0.0036316702   0.00272       -1.0234396     -180.35956      89.039372     -1.4576847      2.0620338     -28.677733     -0.00746647     0.0036250916   0.0027163075   34.397234      34.780876      34.749282      3              41572.857      1.2457313      2004.9364      1708.5804     -1782.4774      191.37023           4356        7128       10809        2904 
    138000  -2278.7608      3717.2536      299.99075      1438.4929     -140.88969      1159.3652     -207.78162      2966.1855      719.69187      0.0027561982  -0.0041481268   0.00092901402  0.00276        21.054129     -300.54808     -72.922149      6.7077367      39.020437      51.897733     -0.0041567542   0.00092858275  0.0027561982   34.511267      34.687216      34.750669      3              41600.017      1.244918       2042.1395      1752.4711     -1940.1039      185.98553           4356        7128       10809        2904 
    140000  -2260.3357      3655.4958      295.00676      1395.1601     -132.92216      1712.9857      2093.6098      2697.2963      348.05097      0.0027960873  -0.0030944895  -0.0032146082   0.0028        -212.1414      -273.3099      -35.272703      54.167063     -21.121646      33.174662     -0.0030992873  -0.0032197862   0.0027960873   34.547781      34.543618      34.752055      3              41473.288      1.248722       2062.423       1736.9627     -1870.0466      200.78841           4356        7128       10809        2904 
    142000  -2273.4008      3585.7903      289.38136      1312.3895     -134.8708      -1932.5021     -1078.4753      38.856382     -4757.8873      0.0028359748  -0.0062045602  -0.0055769912   0.00284        109.28086     -3.9327945      482.09704     -19.931625     -32.173295     -2.8824796     -0.0062238884  -0.0055926007   0.0028359748   34.440001      34.46175       34.753441      3              41247.563      1.2555556      1956.7803      1757.7291     -1801.3592      186.3567            4356        7128       10809        2904 
    144000  -2237.4556      3688.8531      297.69876      1451.3974     -146.53343     -627.53404      711.96032     -434.60106     -2159.9614      0.0028758607  -0.0055392747  -0.0048910204   0.00288       -72.138079      44.037186      218.85928     -47.300994     -30.948274      10.850918     -0.0055546734  -0.0049030206   0.0028758607   34.463057      34.485522      34.754827      3              41305.296      1.2538007      1976.0662      1713.7056     -1757.6623      190.04462           4356        7128       10809        2904 
    146000  -2247.9147      3676.7119      296.71895      1428.7972     -126.54641     -2130.2771     -3818.6012     -194.1273      -2378.1029      0.0029157451   0.00029634508 -0.0031327925   0.00292        386.91687      19.667019      240.95848     -17.87179       54.466019     -10.581505      0.00029630118 -0.0031377099   0.0029157451   34.66529       34.546454      34.756213      3              41622.75       1.244238       1930.2748      1725.4607     -1764.9703      193.87508           4356        7128       10809        2904 
    148000  -2320.7934      3635.229       293.37118      1314.4356     -117.61666      723.38174      1158.8671      869.13771      142.14042      0.0029556278   0.0040674518  -0.0074923936   0.00296       -117.41819     -88.061435     -14.398221      92.730119     -2.8939003      54.797377      0.004059202   -0.0075206026   0.0029556278   34.795978      34.395372      34.7576        3              41598.611      1.24496        1934.7333      1735.6911     -1874.5748      192.96499           4356        7128       10809        2904 
    150000  -2249.3934      3701.3157      298.70453      1451.9224     -97.263875      10.857502     -2860.3221      2116.4463      776.44834      0.002995509    0.0025546931  -0.0092142836   0.003          289.82261     -214.44847     -78.67315       15.632331     -7.1330634      1.7067478      0.0025514354  -0.0092569977   0.002995509    34.743554      34.335699      34.758986      3              41465.531      1.2489556      2001.7577      1739.2        -1849.6624      188.9121            4356        7128       10809        2904 
    152000  -2222.668       3611.4187      291.44964      1388.7508     -89.191121     -1310.7788     -936.2842      -2819.2359     -176.81628      0.0030353885   0.00092628837 -0.0084733111   0.00304        94.865328      285.65535      17.912267     -16.692716     -31.185344     -14.34166       0.00092585962 -0.0085094137   0.0030353885   34.687121      34.361378      34.760372      3              41430.793      1.2500029      2029.2287      1733.6251     -1837.4957      196.1384            4356        7128       10809        2904 
    154000  -2354.2695      3636.2266      293.45169      1281.9571     -152.46519     -1142.7489     -3651.3049     -399.85592      622.9142       0.0030752665   0.00070648461 -0.0048188337   0.00308        369.97141      40.518306     -63.113908     -3.4355628     -46.852354     -27.768017      0.00070623517 -0.0048304817   0.0030752665   34.679504      34.488024      34.761758      3              41576.021      1.2456365      1948.2534      1643.5297     -1791.0778      192.26898           4356        7128       10809        2904 
    156000  -2263.3718      3721.1973      300.30902      1457.8255     -117.9782       439.04075      1351.8813      888.77871     -923.5378       0.0031151429  -0.0017627574   0.0010706249   0.00312       -136.97893     -90.055055      93.577894      38.767487      49.64942       6.1765594     -0.0017643128   0.0010700522   0.0031151429   34.593932      34.692123      34.763144      3              41720.534      1.2413218      1982.0626      1747.2072     -1816.9785      185.09855           4356        7128       10809        2904 
    158000  -2217.024       3629.3404      292.89595      1412.3163     -151.06851      718.41246      952.61513      1957.0237     -754.40145      0.0031550177  -0.0067376167   0.0048644547   0.00316       -96.52452      -198.29622      76.438954     -2.142404      -6.2733419     -16.083479     -0.0067604169   0.0048526615   0.0031550177   34.421528      34.823598      34.764531      3              41671.599      1.2427795      2012.0097      1726.3699     -1779.8976      202.86634           4356        7128       10809        2904 
    160000  -2183.4613      3687.3408      297.57672      1503.8796     -84.964837      1071.6766      876.083        383.5768       1955.3701      0.0031948909  -0.011407058    0.0051176508   0.0032        -88.7633       -38.859856     -198.12184     -29.545025      69.952064      11.270204     -0.011472618    0.0051046001   0.0031948909   34.259709      34.832373      34.765917      3              41487.801      1.2482852      2104.9125      1654.5893     -1885.9733      191.95443           4356        7128       10809        2904 
    162000  -2166.3358      3641.2964      293.86083      1474.9605     -143.05966     -580.74336     -344.49669     -915.67528     -482.05812      0.0032347625  -0.012580824    0.0040951219   0.00324        34.900526      92.774906      48.838759     -11.388417     -3.7844995     -13.10913      -0.012660633    0.0040867597   0.0032347625   34.219032      34.796937      34.767303      3              41398.036      1.2509919      2060.2023      1739.6536     -1820.8979      197.30734           4356        7128       10809        2904 
    164000  -2364.3186      3775.5697      304.69699      1411.251      -122.29854      423.45962      170.62558      613.18784      486.56544      0.0032746325  -0.013478774    0.001448488    0.00328       -17.287913     -62.130562     -49.30053      -52.139883     -1.7660172     -30.335888     -0.013570437    0.00144744     0.0032746325   34.187913      34.705218      34.768689      3              41253.015      1.2553897      1951.1057      1681.1628     -1832.5528      186.86474           4356        7128       10809        2904 
    166000  -2323.6568      3781.0285      305.13753      1457.3717     -149.49699      542.3837       1974.1461     -872.40551      525.41055      0.003314501   -0.0093199856  -0.0014283737   0.00332       -200.02781      88.398937     -53.234666     -17.078752      4.1810535     -26.502056     -0.0093636884  -0.0014293948   0.003314501    34.332036      34.60552       34.770075      3              41309.561      1.2536713      1991.6773      1676.0787     -1796.5018      193.0156            4356        7128       10809        2904 
    168000  -2195.2485      3791.9931      306.0224       1596.7446     -108.23052      91.399251     -63.490479     -1191.5422      1529.2305      0.0033543678  -0.0049409016  -0.0022996981   0.00336        6.4321311      120.73192     -154.95033      25.22948      -48.300992     -2.6658289     -0.0049531482  -0.0023023464   0.0033543678   34.483794      34.575325      34.771462      3              41457.609      1.2491943      2026.5365      1696.6449     -1798.6283      196.26324           4356        7128       10809        2904 
    170000  -2252.482       3676.1726      296.67542      1423.6906     -154.57702     -1417.4554     -2051.6058     -1562.9322     -637.82835      0.0033942331  -0.002974317   -0.0016571656   0.0034         207.87745      158.36267      64.626476      37.239403      38.048784     -5.9742941     -0.0029787491  -0.0016585403   0.0033942331   34.551946      34.597592      34.772848      3              41567.953      1.2458783      2027.0866      1749.362      -1868.8106      193.34504           4356        7128       10809        2904 
    172000  -2256.3407      3688.1835      297.64472      1431.8428     -94.274717      1567.6562      3397.3675     -107.56502      1413.1662      0.0034340967  -0.0044028165  -0.006380234    0.00344       -344.23559      10.901733     -143.18632      16.469032      25.92069      -17.651798     -0.0044125375  -0.0064006747   0.0034340967   34.502441      34.433914      34.774234      3              41313.67       1.2535466      2026.2765      1731.7886     -1873.6682      186.971             4356        7128       10809        2904 
    174000  -2212.2032      3775.4547      304.68771      1563.2515     -142.15437      469.01132      1422.9525      176.70321     -192.6217       0.0034739588  -0.0045859987  -0.013560579    0.00348       -144.17869     -17.902536      19.519241     -47.934735     -72.122168     -41.198643     -0.0045965466  -0.013653363    0.0034739588   34.496093      34.185079      34.77562       3              41009.207      1.2628532      2074.9286      1695.8277     -1805.3524      199.5474            4356        7128       10809        2904 
    176000  -2225.0288      3616.3927      291.85105      1391.3639     -154.76929     -538.4562      -127.99632     -571.5218      -915.85048      0.0035138193   0.00051305884 -0.013658519    0.00352        12.967072      57.907293      92.796374     -30.74295      -60.055233     -47.248858      0.00051292727 -0.013752655    0.0035138193   34.672801      34.181684      34.777006      3              41216.829      1.2564918      1992.6412      1787.9187     -1809.5294      188.1339            4356        7128       10809        2904 
    178000  -2213.1132      3656.9037      295.12038      1443.7905     -130.38193     -2360.7183     -2363.4741     -3785.918      -932.76291      0.0035536782   0.0073648167  -0.011689821    0.00356        239.48387      383.61288      94.516873      44.646641      6.4130973     -25.032963      0.0073378288  -0.011758684    0.0035536782   34.910249      34.24991       34.778393      3              41583.58       1.2454101      1976.0038      1708.2676     -1752.2885      193.09348           4356        7128       10809        2904 
    180000  -2209.3444      3742.8798      302.05885      1533.5354     -124.59959     -44.767236      169.87136     -255.62696     -48.546107      0.0035935355   0.0085843975  -0.0097919448   0.0036        -17.214144      25.899476      4.91701        95.360919      33.515289      6.7066301      0.0085477611  -0.0098402011   0.0035935355   34.952513      34.315681      34.779779      3              41715.537      1.2414705      1956.4311      1754.8342     -1792.7295      199.58098           4356        7128       10809        2904 
    182000  -2301.0134      3662.6173      295.58148      1361.6039     -122.9186       1625.2667      2614.2694      2549.2085     -287.67786      0.0036333912   0.0015806397  -0.0074043484   0.00364       -264.89032     -258.29802      29.149489      16.446709     -65.498348     -13.716466      0.0015793918  -0.0074318966   0.0036333912   34.709798      34.398423      34.781165      3              41527.4        1.2470949      2022.141       1749.0834     -1929.7329      188.84437           4356        7128       10809        2904 
    184000  -2232.1062      3709.0436      299.32818      1476.9374     -124.50748     -1159.8458      237.17018     -1223.2241     -2493.4836      0.0036732454  -0.0059058224  -0.00064173713  0.00368       -24.027172      123.94701      252.65617     -8.0992719     -30.610089     -55.16505      -0.0059233308  -0.00064194314  0.0036732454   34.450354      34.632781      34.782551      3              41499.465      1.2479344      2044.8726      1678.9813     -1859.9502      197.46378           4356        7128       10809        2904 
    186000  -2229.2786      3763.9265      303.75736      1534.6479     -146.17518      761.67135      2275.3259     -192.15571      201.84382      0.0037130979  -0.0090408278   0.0039459925   0.00372       -230.54781      19.469777     -20.452244      6.6805674      87.612095      9.4059804     -0.0090819441   0.0039382275   0.0037130979   34.341711      34.791769      34.783937      3              41560.157      1.246112       2111.5433      1666.6555     -1882.5627      188.18972           4356        7128       10809        2904 
    188000  -2281.9852      3670.9079      296.25055      1388.9227     -122.81401     -1467.3477     -1744.8078     -1043.1657     -1614.0696      0.0037529489  -0.0091986479   0.0011020854   0.00376        176.78918      105.69531      163.54206     -50.37041       61.956974     -9.8068365     -0.0092412167   0.0011014785   0.0037529489   34.336241      34.693213      34.785324      3              41437.479      1.2498011      2013.4411      1675.6215     -1788.0086      191.99863           4356        7128       10809        2904 
    190000  -2232.2662      3602.5411      290.73319      1370.2749     -117.95316      894.07302     -393.41878      1317.8609      1757.7769      0.0037927982  -0.008595888   -0.0041356789   0.0038         39.866339     -133.52916     -178.10354     -16.465618     -14.399788     -19.200907     -0.0086330457  -0.0041442544   0.0037927982   34.35713       34.511699      34.78671       3              41247.399      1.2555606      1990.658       1720.7629     -1811.3617      195.39396           4356        7128       10809        2904 
    192000  -2259.5497      3793.1413      306.11506      1533.5916     -112.10413     -854.18092     -503.0563       276.9013      -2336.3878      0.003832646   -0.0062998268  -0.0060888905   0.00384        50.970832     -28.058402      236.73319      4.4089342     -17.940429     -62.803363     -0.0063197544  -0.0061075034   0.003832646    34.4367        34.44401       34.788096      3              41263.484      1.2550712      2017.3797      1675.4716     -1821.8754      195.8334            4356        7128       10809        2904 
    194000  -2231.6484      3638.0905      293.60211      1406.4422     -121.12263     -50.675512     -320.33779      876.7859      -708.47465      0.0038724922  -0.0038378963  -0.0064661862   0.00388        32.455892     -88.842696      71.783836     -25.594809     -22.856148     -86.84331      -0.0038452799  -0.0064871826   0.0038724922   34.522018      34.430935      34.789482      3              41351.661      1.2523949      2002.3388      1668.4464     -1768.2722      201.832             4356        7128       10809        2904 
    196000  -2254.653       3668.995       296.09617      1414.342      -160.83419     -996.2928       120.4914      -1501.3763     -1607.9936      0.0039123368  -0.0033112679  -0.0076987607   0.00392       -12.208504      152.12724      162.93024      32.174456      25.683661     -8.2730498     -0.0033167623  -0.0077285491   0.0039123368   34.540269      34.38822       34.790868      3              41323.84       1.253238       1992.5674      1680.71       -1784.9024      203.42045           4356        7128       10809        2904 
    198000  -2230.766       3695.1239      298.20483      1464.3578     -108.91655     -268.35999     -669.00689     -1738.0446      1601.9715      0.0039521798  -0.0030449528  -0.010257975    0.00396        67.793602      176.11374     -162.31352      0.26858551    -17.335863     -44.809147     -0.0030495981  -0.01031095     0.0039521798   34.549498      34.29953       34.792255      3              41229.919      1.2560929      2020.6923      1685.5201     -1791.2957      207.61089           4356        7128       10809        2904 
    200000  -2261.1932      3807.6778      307.28819      1546.4846     -86.663392      1271.0733     -803.14704      480.19131      4136.1757      0.0039920213  -0.00144598    -0.007801387    0.004          81.374055     -48.660166     -419.10291     -21.690752     -59.176622     -17.64319      -0.0014470264  -0.007831977    0.0039920213   34.60491       34.384663      34.793641      3              41400.194      1.2509267      2055.8639      1661.1279     -1871.7875      204.99775           4356        7128       10809        2904 
    202000  -2328.4187      3726.8561      300.76569      1398.4374     -178.63398     -1199.8246     -3331.3004      325.31181     -593.48521      0.0040318611  -0.0013101183  -0.0021955442   0.00404        337.54167     -32.964551      60.132623      59.77492       29.666285      55.822772     -0.0013109773  -0.0021979579   0.0040318611   34.609618      34.578934      34.795027      3              41641.426      1.24368        1982.8576      1668.4594     -1815.5092      190.50313           4356        7128       10809        2904 
    204000  -2256.008       3710.2805      299.42801      1454.2725     -119.12123     -128.78886      1285.2291     -1132.106      -539.48964      0.0040716994  -0.0086947953  -0.0027305433   0.00408       -130.21878      114.71792      54.670972      42.523417      31.916339     -9.7769983     -0.0087328156  -0.002734278    0.0040716994   34.353702      34.560394      34.796413      3              41312.998      1.253567       1963.6388      1711.9425     -1775.3027      193.479             4356        7128       10809        2904 
    206000  -2200.7183      3726.3262      300.72293      1525.6079     -148.75265     -401.83776     -386.32751      597.82077     -1417.0065      0.004111536   -0.011356878   -0.0023837625   0.00412        39.141468     -60.577401      143.57506     -43.650498     -28.875847     -42.41222      -0.01142186    -0.0023866082   0.004111536    34.261448      34.572411      34.797799      3              41218.023      1.2564554      1981.7616      1732.1224     -1737.223       193.11054           4356        7128       10809        2904 
    208000  -2224.019       3668.4144      296.04932      1444.3955     -129.81997      489.99527      519.40806      208.06496      742.51279      0.0041513711  -0.011311321   -0.00010983624  0.00416       -52.63067      -21.083808     -75.236788     -18.946341     -42.563536     -77.441373     -0.011375781   -0.00010984228  0.0041513711   34.263027      34.651214      34.799186      3              41315.524      1.2534903      1991.8708      1724.4747     -1802.4652      194.59147           4356        7128       10809        2904 
    210000  -2267.6416      3700.8968      298.67072      1433.2552     -159.14178     -651.3075      -1576.5418     -739.89306      362.51238      0.0041912046  -0.01098301     0.0027877946   0.0042         159.74495      74.971495     -36.729717     -2.543668       45.278323     -15.900112     -0.011043769    0.0027839159   0.0041912046   34.274404      34.751632      34.800572      3              41450.664      1.2494036      2032.5318      1686.5409     -1834.7255      195.69175           4356        7128       10809        2904 
    212000  -2208.4938      3797.9545      306.50349      1589.4607     -124.48663      620.22206      2584.8391     -103.60557     -620.56732      0.0042310365  -0.012849046    0.0013341989   0.00424       -261.90991      10.496765      62.87791       34.585226      6.724597      -6.7034366     -0.012932309    0.0013333096   0.0042310365   34.209737      34.701257      34.801958      3              41314.131      1.2535326      2013.3809      1688.486      -1775.7688      194.34828           4356        7128       10809        2904 
    214000  -2274.8655      3721.0594      300.29789      1446.1939     -151.47307     -574.98405     -877.5779       1042.5907     -1889.9649      0.0042708669  -0.014566158    0.0013704585   0.00428        88.918643     -105.64251      191.49881     -14.878489     -9.6472758     -9.0276898     -0.014673286    0.0013695202   0.0042708669   34.15023       34.702514      34.803344      3              41245.403      1.2556214      1998.219       1710.7171     -1841.9968      199.63511           4356        7128       10809        2904 
    216000  -2322.1294      3711.4801      299.52482      1389.3507     -146.20188     -894.03031     -424.90667     -1102.3036     -1154.8806      0.0043106956  -0.015283101    0.0018841174   0.00432        43.052401      111.68967      117.01704     -29.644322      24.80874      -27.248893     -0.015401091    0.0018823447   0.0043106956   34.125384      34.720315      34.80473       3              41238.179      1.2558413      1955.8126      1695.1778     -1801.939       196.95691           4356        7128       10809        2904 
    218000  -2237.7697      3603.1881      290.78541      1365.4185     -115.2789       1502.2464      1522.3789      2184.5704      799.78974      0.0043505227  -0.014521382    0.00011732917  0.00436       -154.2518      -221.34841     -81.035378      13.408733      18.874262      15.132154     -0.01462785     0.00011732228  0.0043505227   34.151782      34.659087      34.806117      3              41198.941      1.2570374      2004.7005      1709.3402     -1847.4802      202.20343           4356        7128       10809        2904 
    220000  -2165.4393      3677.0138      296.74331      1511.5745     -110.29518      558.33473     -82.031469     -628.7755       2385.8112      0.0043903483  -0.014037727   -0.0011777883   0.0044         8.3122098      63.711038     -241.74195      13.911367     -36.306848     -18.709223     -0.014137188   -0.0011784825   0.0043903483   34.168543      34.614204      34.807503      3              41167.423      1.2579998      2120.1227      1765.0942     -1908.5887      187.35214           4356        7128       10809        2904 
    222000  -2286.1745      3657.1182      295.13769      1370.9437     -130.55007      1253.2332     -217.3917       3073.9734      903.11803      0.0044301723  -0.015006181   -0.001887293    0.00444        22.025322     -311.47212     -91.51035      -2.7602158     -11.099801     -42.53887      -0.015119913   -0.0018890761   0.0044301723   34.134981      34.589616      34.808889      3              41099.409      1.2600816      1992.5389      1730.5128     -1871.3372      195.4758            4356        7128       10809        2904 
    224000  -2246.4618      3667.444       295.97101      1420.9822     -163.9611      -555.90161     -321.81581     -1137.3204     -208.56862      0.0044699947  -0.013893669   -0.00089658041  0.00448        32.609996      115.24101      21.135235     -40.333472      2.5125536     -36.482593     -0.013991089   -0.00089698258  0.0044699947   34.173535      34.62395       34.810275      3              41188.31       1.2573618      2010.6793      1754.3679     -1824.1983      188.70317           4356        7128       10809        2904 
    226000  -2192.4068      3628.8099      292.85314      1436.403      -113.01067     -1320.4316     -1151.5595     -607.44086     -2202.2944      0.0045098155  -0.010078782    0.0023727485   0.00452        116.68221      61.549412      223.14793     -3.2384905     -32.414872      11.482424     -0.010129917    0.002369938    0.0045098155   34.30574       34.737248      34.811661      3              41484.605      1.2483814      2048.4415      1686.5799     -1788.8346      194.57119           4356        7128       10809        2904 
    228000  -2152.6864      3703.5102      298.88162      1550.8238     -106.95372      1175.3237      205.04754      1013.6039      2307.3196      0.0045496347  -0.0067330105   0.0066383345   0.00456       -20.774002     -102.70089     -233.7868       60.64748       19.695331      32.136991     -0.0067557795   0.0066163978   0.0045496347   34.421688      34.885072      34.813048      3              41803.615      1.2388548      2061.3208      1716.2883     -1841.8913      203.63677           4356        7128       10809        2904 
    230000  -2239.576       3680.6249      297.03473      1441.0488     -100.26174      1223.9377      1319.8294      675.21787      1676.7657      0.0045894523  -0.0075524048   0.0086384398   0.0046        -133.73665     -68.421059     -169.90324      24.898066      72.788438      9.2666614     -0.0075810687   0.008601342    0.0045894523   34.393292      34.954386      34.814434      3              41853.787      1.2373697      2033.3267      1698.2809     -1877.1421      200.25736           4356        7128       10809        2904 
    232000  -2225.819       3669.9643      296.1744       1444.1452     -114.1949       542.91819      1086.7101      302.90925      239.13521      0.0046292684  -0.011533124    0.0045056537   0.00464       -110.10882     -30.690172     -24.228329      33.623861      13.925861     -16.418709     -0.011600146    0.0044955336   0.0046292684   34.25534       34.811164      34.81582       3              41516.76       1.2474145      1998.0569      1691.9664     -1811.0867      189.45323           4356        7128       10809        2904 
    234000  -2239.503       3683.6199      297.27643      1444.1169     -108.80084      192.6452       297.17406      761.89418     -481.13265      0.0046690828  -0.014821734    0.0025602952   0.00468       -30.111903     -77.199684      48.749995     -62.746416     -51.73848      -29.661805     -0.014932674    0.0025570232   0.0046690828   34.141373      34.743748      34.817206      3              41300.144      1.2539571      2013.6373      1695.197      -1788.5421      186.62547           4356        7128       10809        2904 
    236000  -2235.2126      3670.9996      296.25795      1435.7871     -106.90087      1156.6301      1093.1962      319.68213      2057.012       0.0047088957  -0.013942       0.0036410003   0.00472       -110.76746     -32.391157     -208.4261      -15.208306      9.9865713     -36.431902     -0.014040103    0.0036343879   0.0047088957   34.17186       34.7812        34.818592      3              41383.23       1.2514395      2055.395       1676.854      -1837.774       198.18527           4356        7128       10809        2904 
    238000  -2200.5954      3671.5116      296.29927      1470.9162     -145.20384     -436.23183     -365.53169     -362.3831      -580.78071      0.004748707   -0.010736545    0.0043956891   0.00476        37.041432      36.72246       58.851328      9.6088951      7.8073433     -35.337812     -0.010794598    0.0043860562   0.004748707    34.282945      34.807353      34.819979      3              41550.632      1.2463976      2033.9591      1669.7897     -1792.8034      188.26678           4356        7128       10809        2904 
    240000  -2237.3057      3816.8474      308.0282       1579.5417     -135.46008     -401.8968      -1248.7206     -1003.0766      1046.1068      0.0047885167  -0.0088064653   0.0035427964   0.0048         126.52257      101.63255     -106.00082     -17.894392     -1.9641336     -18.513298     -0.0088454714   0.0035365355   0.0047885167   34.349832      34.777796      34.821365      3              41598.002      1.2449783      2006.5097      1677.1377     -1821.4065      198.14074           4356        7128       10809        2904 
    242000  -2288.5545      3744.5509      302.1937       1455.9963     -163.72022     -483.45321     -1899.9128      1254.5592     -805.00605      0.0048283249  -0.0086695425   0.0014770048   0.00484        192.50882     -127.11806      81.567396      60.361083      39.813036      27.963556     -0.0087073416   0.0014759151   0.0048283249   34.354577      34.706206      34.822751      3              41519.76       1.2473244      1996.7601      1650.8411     -1816.0452      188.03156           4356        7128       10809        2904 
    244000  -2228.749       3696.2872      298.29872      1467.5383     -128.27151     -1299.4215     -1611.8229     -1429.0701     -857.37157      0.0048681314  -0.012780778   -0.00096410093  0.00488        163.31695      144.79951      86.872193      17.517473     -75.154663      36.889515     -0.012863155   -0.00096456598  0.0048681314   34.212103      34.62161       34.824137      3              41248.426      1.2555293      2012.2804      1695.9793     -1818.5529      199.36422           4356        7128       10809        2904 
    246000  -2300.3272      3645.1107      294.16865      1344.7835     -129.60905      2047.9149      708.85264      3502.5441      1932.3478      0.0049079364  -0.017492664    0.00024014188  0.00492       -71.827395     -354.8982      -195.79815     -48.226217     -6.9308977     -56.790331     -0.017647469    0.00024011305  0.0049079364   34.048812      34.663343      34.825523      3              41102.672      1.2599816      2011.9937      1688.2178     -1889.3515      193.3872            4356        7128       10809        2904 
    248000  -2263.8845      3666.4073      295.88734      1402.5228     -200.12539     -169.52879     -1159.4781      1760.721      -1109.8293      0.0049477397  -0.018823102    0.0054153633   0.00496        117.49284     -178.39585      112.46228      11.969859     -29.394976     -60.926926     -0.019002511    0.0054007529   0.0049477397   34.002706      34.84269       34.82691       3              41261.033      1.2551457      1996.3073      1704.7426     -1822.8101      196.05197           4356        7128       10809        2904 
    250000  -2184.3559      3697.8504      298.42487      1513.4945     -126.19632     -1709.2354     -2847.8286     -1715.856      -564.02171      0.0049875415  -0.019372475    0.0095342372   0.005          288.55618      173.85906      57.149455     -47.799746      60.374698      31.030109     -0.01956258     0.0094890732   0.0049875415   33.983667      34.98543       34.828296      3              41408.517      1.2506753      1984.2632      1775.1993     -1860.7694      187.26914           4356        7128       10809        2904 
    252000  -2299.7811      3684.524       297.3494       1384.7429     -134.85167     -720.22064     -1456.5015     -1086.0531      381.89265      0.0050273417  -0.017248909    0.0069472428   0.00504        147.57667      110.04113     -38.698601      9.735605       82.339119      9.6844476     -0.017399404    0.0069232219   0.0050273417   34.057259      34.895777      34.829682      3              41393.494      1.2511292      2016.0934      1676.9973     -1847.9195      200.86331           4356        7128       10809        2904 
    254000  -2309.1231      3702.4915      298.79942      1393.3685     -155.1506       161.64533     -1044.6198     -280.57533      1810.1311      0.0050671403  -0.01278275    -0.00038719576  0.00508        105.85079      28.434061     -183.40684     -37.726063     -11.558066     -47.229849     -0.012865152   -0.00038727074  0.0050671403   34.212034      34.641602      34.831068      3              41280.378      1.2545575      1996.2624      1687.0299     -1801.2703      183.79925           4356        7128       10809        2904 
    256000  -2186.7127      3729.9819      301.01795      1543.2692     -122.906       -615.10826     -3981.9154      844.14422      1292.4464      0.0051069374  -0.0074980553  -0.0035601458   0.00512        403.46684     -85.533661     -130.95788      36.375526     -38.81374      -18.459034     -0.007526307   -0.0035664982   0.0051069374   34.395175      34.531644      34.832454      3              41371.27       1.2518013      1999.885       1715.6772     -1796.326       193.9365            4356        7128       10809        2904 
    258000  -2338.5341      3737.8928      301.65638      1399.3587     -156.17177     -508.15416     -1600.106       706.66014     -631.01656      0.0051467328  -0.0080119603  -0.0027019535   0.00516        162.12676     -71.606293      63.933813      35.897877     -48.555115      19.719198     -0.0080442285  -0.0027056104   0.0051467328   34.377366      34.561384      34.833841      3              41387.109      1.2513222      1972.9153      1706.4586     -1846.2244      188.37518           4356        7128       10809        2904 
    260000  -2320.4485      3708.573       299.29021      1388.1245     -88.841858      1007.435       1208.9766      1827.7466     -14.418173      0.0051865267  -0.012103002   -0.00032116245  0.0052        -122.49823     -185.19515      1.4622038      9.7905887     -30.187929     -84.019672     -0.01217684    -0.00032121404  0.0051865267   34.235591      34.643891      34.835227      3              41316.462      1.2534618      1989.7368      1714.1729     -1882.8399      182.98718           4356        7128       10809        2904 
    262000  -2250.3873      3700.1997      298.61447      1449.8125     -81.974386      245.77246      1938.878      -56.960658     -1144.5999      0.005226319   -0.014108634    0.0033530365   0.00524       -196.45405      5.7741643      115.97929     -0.50899059     22.276078     -37.191738     -0.014209107    0.0033474276   0.005226319    34.166086      34.77122       34.836613      3              41385.774      1.2513626      1953.9858      1789.0378     -1859.8645      186.48704           4356        7128       10809        2904 
    264000  -2261.1488      3692.7697      298.01485      1431.6209     -112.62232      119.98441     -831.13693      941.64189      249.44826      0.0052661097  -0.014043943    0.0054183296   0.00528        84.209454     -95.41734      -25.280886     -19.122398      0.25604616     24.752908     -0.014143492    0.0054037032   0.0052661097   34.168328      34.842793      34.837999      3              41475.333      1.2486605      1918.8146      1741.1249     -1791.6567      187.13103           4356        7128       10809        2904 
    266000  -2310.102       3666.9689      295.93266      1356.8669     -106.52326     -1189.0714     -2471.985      -40.3115       -1054.9177      0.0053058988  -0.014304111    0.0056430489   0.00532        250.47862      4.0892167      106.89434      15.669489      25.360467     -15.669787     -0.014407401    0.0056271865   0.0053058988   34.159311      34.850581      34.839385      3              41475.307      1.2486613      1901.6464      1715.7566     -1771.4118      192.56672           4356        7128       10809        2904 
    268000  -2246.9328      3738.0926      301.67251      1491.1598     -129.23613     -722.36553     -1082.3009      435.25135     -1520.047       0.0053456863  -0.01521466     0.0056180577   0.00536        109.66363     -44.102356      154.01824     -32.453636      6.2238766     -15.445462     -0.01533159     0.0056023353   0.0053456863   34.127756      34.849715      34.840772      3              41437.613      1.2497971      2004.2803      1739.0662     -1817.0986      189.26936           4356        7128       10809        2904 
    270000  -2264.1672      3682.2781      297.16815      1418.111      -108.3863       3235.5475      3616.1375      2346.2963      3744.2086      0.0053854723  -0.01612039     0.0021916656   0.0054        -366.40985     -237.74291     -379.38658      32.247417      22.986255      3.3185738     -0.016251737    0.0021892674   0.0053854723   34.096368      34.730973      34.842158      3              41260.085      1.2551746      2103.3295      1720.1771     -1937.146       201.36434           4356        7128       10809        2904 
    272000  -2349.9148      3604.6537      290.90368      1254.7389     -108.2859       97.619892     -2055.3874      829.95299      1518.2941      0.0054252566  -0.016286423   -0.0001436685   0.00544        208.26066     -84.09648      -153.8427      -15.024643     -13.664221     -77.33978      -0.016420505   -0.00014367882  0.0054252566   34.090614      34.650042      34.843544      3              41158.63       1.2582685      2004.8546      1662.7463     -1841.1259      190.65935           4356        7128       10809        2904 
    274000  -2216.7763      3672.0442      296.34225      1455.2679     -164.73203     -1334.2197     -2396.1993     -2569.4925      963.03278      0.0054650394  -0.01471394    -0.0019533914   0.00548        242.7989       260.35783     -97.575385     -16.149781      9.014986      -39.565939     -0.014823264   -0.0019553018   0.0054650394   34.145109      34.587326      34.84493       3              41151.444      1.2584882      1963.6241      1698.4093     -1707.4821      205.48798           4356        7128       10809        2904 
    276000  -2249.4697      3741.4686      301.94496      1491.999      -89.09807       837.06465     -871.06369      2261.1588      1121.0988      0.0055048206  -0.011659434   -0.0035617363   0.00552        88.258321     -229.11406     -113.5975       0.97781509    -40.267071     -67.515039     -0.011727939   -0.0035680944   0.0055048206   34.250963      34.531589      34.846316      3              41214.138      1.2565739      2002.8768      1721.2825     -1826.5746      194.04665           4356        7128       10809        2904 
    278000  -2279.3513      3631.1031      293.03821      1351.7518     -147.55329      628.96313      505.848        322.84788      1058.1935      0.0055446003  -0.010211454    0.002140659    0.00556       -51.255344     -32.712856     -107.22175     -0.97079478    -42.143647     -68.211265     -0.010263949    0.002138371    0.0055446003   34.301142      34.729205      34.847703      3              41512.375      1.2475463      2019.5007      1761.1537     -1883.5297      198.67219           4356        7128       10809        2904 
    280000  -2270.4194      3746.6863      302.36604      1476.267      -96.741267     -790.10189     -1206.1002     -233.88152     -930.32394      0.0055843783  -0.010448146    0.00093586856  0.0056         122.21139      23.701216      94.26824       17.83798       89.680649      96.894882     -0.010503111    0.00093543091  0.0055843783   34.29294       34.687453      34.849089      3              41454.202      1.249297       2030.548       1672.7932     -1805.7101      204.23185           4356        7128       10809        2904 
    282000  -2202.8838      3655.6818      295.02177      1452.798      -111.70909     -604.79711     -1714.5646     -320.2755       220.44881      0.0056241548  -0.011279281   -0.0018351983   0.00564        173.72533      32.449105     -22.339898     -18.378486     -43.274236     -21.359328     -0.011343375   -0.0018368844   0.0056241548   34.264137      34.591422      34.850475      3              41306.359      1.2537684      1954.3624      1732.4278     -1755.7348      186.12968           4356        7128       10809        2904 
    284000  -2279.8217      3650.1909      294.57864      1370.3692     -143.04659     -1081.332      -280.41195     -2115.4305     -848.15351      0.0056639296  -0.010207147   -0.0004599477   0.00568        28.412291      214.34554      85.938738      7.8004119     -37.968029     -60.939985     -0.010259597   -0.00046005351  0.0056639296   34.301292      34.639081      34.851861      3              41409.77       1.2506375      1928.802       1729.0264     -1792.8098      205.02444           4356        7128       10809        2904 
[...]
   4938000  -2144.1285      3669.4172      296.13024      1525.2887     -137.27604     -795.38831     -22.484353     -1617.3275     -746.35305      0.094182271   -0.061488207   -0.024124363    0.09876        2.2821015      163.87966      75.628124     -4.0096893     -57.006399      160.75192     -0.063459857   -0.024420121    0.094182271    32.524146      33.81899       38.07755       3              41882.784      1.2365131      2032.6113      1782.1917     -1853.0844      196.17861           4356        7128       10809        2904 
   4940000  -2109.1533      3708.8833      299.31524      1599.73       -165.80442     -639.01677      811.25363     -1062.142      -1666.162       0.094218675   -0.062000561   -0.02210188     0.0988        -82.204109      107.61778      168.82005     -2.4734713      3.227417       173.91961     -0.064005928   -0.022349786    0.094218675    32.50639       33.88908       38.078937      3              41948.2        1.2345848      2001.7349      1778.2834     -1768.9996      188.15098           4356        7128       10809        2904 
   4942000  -2216.316       3675.3365      296.60795      1459.0206     -130.13512     -2295.4055     -1194.3423     -2882.3587     -2809.5156      0.094255078   -0.061607176   -0.02227303     0.09884        121.01591      292.05413      284.67334     -6.7355999      14.263005      220.31593     -0.063586629   -0.02252482     0.094255078    32.520023      33.883148      38.080323      3              41959.975      1.2342383      1981.7918      1685.0417     -1810.4663      188.64319           4356        7128       10809        2904 
   4944000  -2172.2928      3660.7234      295.42863      1488.4305     -123.52143     -78.836611      498.79067      1352.7204     -2088.0209      0.094291479   -0.062058769   -0.022355976    0.09888       -50.53894      -137.06333      211.56973      3.1221721      9.9863129      207.22665     -0.064067986   -0.022609659    0.094291479    32.504373      33.880274      38.081709      3              41937.751      1.2348924      1976.733       1742.9033     -1814.6358      186.55243           4356        7128       10809        2904 
   4946000  -2102.5504      3654.0562      294.89058      1551.5059     -146.13296     -2001.1425     -775.01265     -847.65076     -4380.764       0.094327879   -0.060407594   -0.022827733    0.09892        78.529457      85.889528      443.88224      0.94980231     25.769567      192.84867     -0.062309109   -0.02309232     0.094327879    32.561594      33.863925      38.083095      3              41992.835      1.2332725      2035.4956      1768.238      -1805.5659      189.94974           4356        7128       10809        2904 
   4948000  -2270.2659      3708.3673      299.27361      1438.1014     -138.84346     -1051.4847      432.57845     -992.62479     -2594.4077      0.094364278   -0.060881941   -0.023202176    0.09896       -43.839293      100.56973      262.87057      1.0402512     -27.425289      222.29264     -0.062814079   -0.023475584    0.094364278    32.545156      33.850949      38.084481      3              41957.079      1.2343235      1952.9375      1750.8994     -1874.4033      197.45127           4356        7128       10809        2904 
   4950000  -2203.5422      3654.8451      294.95425      1451.303      -134.76009     -1594.4453     -2337.9177     -2146.6226     -298.7955       0.094400675   -0.062257955   -0.024424992    0.099          236.89468      217.51172      30.280741      7.5832199      23.205222      193.78671     -0.064280374   -0.02472823     0.094400675    32.49747       33.808572      38.085868      3              41844.678      1.2376391      1997.1222      1749.254      -1814.7702      182.22648           4356        7128       10809        2904 
   4952000  -2215.8792      3754.6321      303.00728      1538.7529     -136.77043     -1986.4643     -379.76918     -1099.7134     -4479.9103      0.094437071   -0.062716157   -0.02599986     0.09904        38.48034       111.42869      453.92715     -7.8835495     -11.203672      156.9744      -0.064769115   -0.026343831    0.094437071    32.481591      33.753995      38.087254      3              41758.235      1.2402011      1947.2462      1735.6928     -1762.9509      197.50767           4356        7128       10809        2904 
   4954000  -2212.3016      3645.189       294.17498      1432.8874     -174.10157     -2451.5278      759.38013     -2747.8756     -5366.0881      0.094473466   -0.06122049    -0.025555636    0.09908       -76.95295       278.41976      543.71016     -14.166706     -27.028206      235.82942     -0.063174641   -0.025887853    0.094473466    32.533423      33.76939       38.08864       3              41845.469      1.2376157      2015.6025      1722.806      -1820.53        185.33724           4356        7128       10809        2904 
   4956000  -2213.8934      3636.6055      293.48227      1422.7122     -165.68046     -475.17822     -255.5013       592.97917     -1763.0125      0.09450986    -0.061008517   -0.023637058    0.09912        25.894141     -60.077967      178.64282      9.3504573     -3.2384503      217.04451     -0.06294887    -0.023920895    0.09450986     32.540769      33.835878      38.090026      3              41938.852      1.23486        2020.8311      1715.3629     -1829.729       202.35336           4356        7128       10809        2904 
   4958000  -2164.8044      3669.9936      296.17677      1505.1892     -117.80149     -240.24389      2739.8138      434.13217     -3894.6776      0.094546252   -0.063463393   -0.022466103    0.09916       -277.6122      -43.988999      394.62764      39.424667      26.826396      236.75439     -0.065566668   -0.02272231     0.094546252    32.455695      33.876457      38.091412      3              41880.898      1.2365687      2049.3725      1801.2074     -1889.0761      181.15267           4356        7128       10809        2904 
   4960000  -2210.1335      3685.8497      297.45638      1475.7162     -160.09886     -564.82397      1277.1143     -1418.9134     -1552.6728      0.094582642   -0.065643934   -0.023115222    0.0992        -129.40339      143.77162      157.32479     -38.043804     -14.336767      200.65547     -0.067897686   -0.023386569    0.094582642    32.380129      33.853962      38.092799      3              41757.16       1.240233       1921.3069      1759.6983     -1755.1447      192.58213           4356        7128       10809        2904 
   4962000  -2180.6038      3685.9826      297.46711      1505.3787     -98.847654     -2436.9026     -1447.8859     -1697.1358     -4165.6861      0.094619032   -0.064707678   -0.021303613    0.09924        146.70668      171.96192      422.08779     -35.838673     -28.689002      205.3824      -0.066896155   -0.02153381     0.094619032    32.412575      33.916744      38.094185      3              41878.042      1.2366531      1930.639       1750.5289     -1780.546       191.94114           4356        7128       10809        2904 
   4964000  -2180.8065      3698.246       298.4568       1517.4395     -150.56208     -2098.9361     -1501.2885     -1139.2915     -3656.2285      0.09465542    -0.0621529     -0.016075002    0.09928        152.11878      115.43944      370.46808      2.6260407      1.3127729      162.01478     -0.06416835    -0.016205607    0.09465542     32.501111      34.097941      38.095571      3              42218.31       1.226686       1980.7687      1748.9652     -1776.914       189.9902            4356        7128       10809        2904 
   4966000  -2174.9783      3715.1747      299.82298      1540.1964     -129.29746     -903.7723       933.53324     -2762.1516     -882.69854      0.094691807   -0.062219358   -0.016030202    0.09932       -94.589108      279.87616      89.440566      46.11424       113.91557      290.45229     -0.064239215   -0.016160075    0.094691807    32.498808      34.099494      38.096957      3              42218.777      1.2266724      1958.5808      1749.4146     -1816.6547      194.32953           4356        7128       10809        2904 
   4968000  -2166.3563      3731.1651      301.11344      1564.8088     -112.85205     -256.00024      1412.7968      624.20743     -2805.005       0.094728192   -0.063983475   -0.024116882    0.09936       -143.15435     -63.250499      284.21445     -19.520082      9.8775462      235.33104     -0.066122148   -0.024412456    0.094728192    32.437672      33.81925       38.098344      3              41794.558      1.2391233      2076.8016      1727.9571     -1856.9864      193.30433           4356        7128       10809        2904 
   4970000  -2210.5558      3625.7709      292.60789      1415.2151     -130.77607     -1434.1461     -3138.3822      436.24382     -1600.2998      0.094764576   -0.060759486   -0.030588801    0.0994         317.99575     -44.203223      162.14955     -72.595162     -29.544324      169.95501     -0.062683694   -0.031066403    0.094764576    32.549399      33.594965      38.09973       3              41661.9        1.2430688      1995.5026      1701.0371     -1749.7039      195.8569            4356        7128       10809        2904 
   4972000  -2180.3934      3733.0676      301.26698      1552.6742     -157.22193     -838.8485      -1488.2482      324.454       -1352.7513      0.094800959   -0.056263523   -0.031825657    0.09944        150.80219     -32.869942      137.07299      64.340365     -31.905945      240.945       -0.057908308   -0.032343101    0.094800959    32.705207      33.552102      38.101116      3              41809.438      1.2386823      2007.105       1737.3979     -1785.9888      189.81081           4356        7128       10809        2904 
   4974000  -2115.8611      3669.0751      296.10263      1553.214      -135.53275     -773.89923      346.68732     -2140.6766     -527.70839      0.094837341   -0.05594904    -0.027587846    0.09948       -35.130739      216.90133      53.467385     -3.6507639     -84.994106      235.16372     -0.057575131   -0.027975538    0.094837341    32.716106      33.698963      38.102502      3              42007.964      1.2328283      2011.1053      1756.0091     -1781.5912      196.79451           4356        7128       10809        2904 
   4976000  -2237.8108      3677.1438      296.7538       1439.3329     -69.403374     -2537.4212     -2181.2287     -234.38647     -5196.6485      0.094873721   -0.058012498   -0.023451349    0.09952        221.00979      23.745934      526.54727      34.124753      48.601498      185.05352     -0.059763272   -0.023730708    0.094873721    32.644596      33.842314      38.103888      3              42095.982      1.2302506      1914.3695      1709.4024     -1774.3806      196.17639           4356        7128       10809        2904 
   4978000  -2252.422       3622.1436      292.31516      1369.7216     -85.87167      -56.05807       1792.3061      1623.0761     -3583.5564      0.0949101     -0.0632059     -0.024331809    0.09956       -181.60264     -164.45532      363.10668      17.866594      38.238297      202.64941     -0.065291764   -0.024632719    0.0949101      32.464619      33.811801      38.105275      3              41827.674      1.2381422      1937.1999      1727.9734     -1785.5819      193.19883           4356        7128       10809        2904 
   4980000  -2249.9585      3795.7781      306.32785      1545.8196     -133.89246      347.29068      960.23026      1690.041      -1608.3993      0.094946477   -0.063470802   -0.026357916    0.0996        -97.293543     -171.24159      162.97286     -63.887906     -13.552646      206.21253     -0.065574579   -0.026711513    0.094946477    32.455439      33.741587      38.106661      3              41730.528      1.2410245      2024.1181      1673.2932     -1837.0384      181.91039           4356        7128       10809        2904 
   4982000  -2129.0729      3659.795       295.35371      1530.7222     -122.75247      504.31089      90.425671      857.79971      564.70728      0.094982854   -0.059887195   -0.027455996    0.09964       -9.1661213     -86.92045      -57.222855     -26.277707     -9.4051986      172.54725     -0.061755406   -0.027839956    0.094982854    32.579629      33.703533      38.108047      3              41844.487      1.2376447      2026.8966      1766.184      -1854.714       196.63846           4356        7128       10809        2904 
   4984000  -2197.9915      3595.4462      290.16062      1397.4547     -114.15055      45.233996     -204.89934      1461.2158     -1120.6145      0.095019228   -0.05590573    -0.028096084    0.09968        20.76337      -148.05568      113.54815     -4.305401       4.6947886      153.04105     -0.057529256   -0.028498331    0.095019228    32.717606      33.68135       38.109433      3              41995.573      1.2331921      1917.1679      1696.0126     -1742.8742      191.20908           4356        7128       10809        2904 
   4986000  -2158.5156      3690.2128      297.8085       1531.6973     -97.929878     -783.11771     -882.60229     -442.63051     -1024.1203      0.095055602   -0.052890135   -0.027333866    0.09972        89.430974      44.850892      103.77028      55.90679      -11.394959      176.48525     -0.054340179   -0.027714386    0.095055602    32.822112      33.707765      38.110819      3              42164.287      1.2282577      1965.3336      1760.5591     -1807.9448      187.98593           4356        7128       10809        2904 
   4988000  -2190.7462      3676.9292      296.73648      1486.1829     -116.07088     -430.53646     -498.53521     -752.25946     -40.814722      0.095091974   -0.054669634   -0.025640206    0.09976        50.508438      76.217124      4.1298804      35.966494     -17.738559      191.99506     -0.056220819   -0.025974646    0.095091974    32.760443      33.766459      38.112206      3              42159.88       1.2283861      2008.659       1753.7091     -1863.9567      190.20502           4356        7128       10809        2904 
   4990000  -2173.5844      3580.9641      288.99188      1407.3798     -112.32197     -1975.1907      181.77874     -1891.3931     -4215.9576      0.095128345   -0.057921206   -0.023577899    0.0998        -18.415215      191.64893      427.18536     -10.011054      35.073855      215.18889     -0.059666363   -0.023860306    0.095128345    32.64776       33.837928      38.113592      3              42105.326      1.2299776      2016.4358      1711.1629     -1783.5486      198.5675            4356        7128       10809        2904 
   4992000  -2193.0032      3693.3279      298.05989      1500.3247     -123.00051     -1224.0789      292.57517     -2024.1349     -1940.677       0.095164715   -0.059475805   -0.023034315    0.09984       -29.64541       205.09524      196.63885     -13.069391     -14.096565      213.84531     -0.061317905   -0.02330375     0.095164715    32.593885      33.856766      38.114978      3              42060.776      1.2312804      1982.3562      1753.6073     -1812.2708      184.22241           4356        7128       10809        2904 
   4994000  -2166.1959      3654.7943      294.95014      1488.5983     -188.17089     -1669.1228      446.10486     -2544.245      -2909.2284      0.095201083   -0.061781993   -0.023859862    0.09988       -45.199912      257.79724      294.77926      19.931768      29.518626      266.15913     -0.06377294    -0.024149119    0.095201083    32.513964      33.828157      38.116364      3              41923.712      1.2353059      1954.6686      1723.1641     -1740.9191      196.76789           4356        7128       10809        2904 
   4996000  -2118.0089      3703.4439      298.87628      1585.435      -155.06936     -679.97005      936.19889     -293.37883     -2682.7302      0.09523745    -0.065941603   -0.024909761    0.09992       -94.857992      29.729061      271.82998     -7.3487462     -46.448973      240.04492     -0.06821632    -0.02522526     0.09523745     32.369813      33.791772      38.11775       3              41694.467      1.2420979      1986.1955      1782.994      -1793.5409      184.80762           4356        7128       10809        2904 
   4998000  -2242.5487      3712.5314      299.60966      1469.9827     -176.59841     -1673.2958      2429.614      -3797.6985     -3651.803       0.095273816   -0.067746081   -0.023278962    0.09996       -246.18502      384.79745      370.01443     -38.766036      27.19545       286.07646     -0.070150057   -0.023554197    0.095273816    32.307279      33.848288      38.119137      3              41685.032      1.242379       1962.4183      1770.6662     -1814.8921      184.57815           4356        7128       10809        2904 
   5000000  -2158.6577      3634.712       293.32946      1476.0543     -155.07232     -2567.9308     -3199.6344     -2461.5531     -2042.605       0.09531018    -0.066140534   -0.022843926    0.1            324.20704      249.42107      206.97117     -13.951306     -40.897776      143.34409     -0.068429316   -0.023108892    0.09531018     32.362919      33.863364      38.120523      3              41776.941      1.2396458      2041.8839      1765.901      -1855.9902      196.38602           4356        7128       10809        2904 
Loop time of 26135.3 on 16 procs for 5000000 steps with 4158 atoms

Performance: 1.653 ns/day, 14.520 hours/ns, 191.312 timesteps/s, 795.477 katom-step/s
98.8% CPU use with 16 MPI tasks x no OpenMP threads

MPI task timing breakdown:
Section |  min time  |  avg time  |  max time  |%varavg| %total
---------------------------------------------------------------
Pair    | 14135      | 15657      | 16694      | 631.4 | 59.91
Bond    | 4425.6     | 5341.4     | 6138       | 592.3 | 20.44
Kspace  | 1590       | 3378.7     | 5368.2     |1884.7 | 12.93
Neigh   | 122.88     | 122.95     | 123.03     |   0.4 |  0.47
Comm    | 641.51     | 648.36     | 656.27     |  17.2 |  2.48
Output  | 1.0927     | 1.1309     | 1.1833     |   2.3 |  0.00
Modify  | 608.3      | 775.96     | 927.49     | 396.1 |  2.97
Other   |            | 210.1      |            |       |  0.80

Nlocal:        259.875 ave         279 max         241 min
Histogram: 3 0 1 1 1 3 3 2 1 1
Nghost:        7142.56 ave        7197 max        7098 min
Histogram: 3 2 0 4 0 0 3 0 3 1
Neighs:         148542 ave      161627 max      131971 min
Histogram: 1 2 0 2 2 2 1 3 0 3

Total # of neighbors = 2376674
Ave neighs/atom = 571.59067
Ave special neighs/atom = 5.5238095
Neighbor list builds = 23180
Dangerous builds = 0

#-------------------Wrap up-------------------
write_restart   ${myid}.restart
write_restart   tensile_TP_4k_H2O_bonded_rlxed_erate_2e8_r1.restart
System init for write_restart ...
PPPM initialization ...
  using 12-bit tables for long-range coulomb (../kspace.cpp:342)
  G vector (1/distance) = 0.19390737
  grid = 10 10 12
  stencil order = 5
  estimated absolute RMS force accuracy = 0.023702187
  estimated relative force accuracy = 7.1378433e-05
  using double precision KISS FFT
  3d grid and FFT values/proc = 800 90
Generated 36 of 36 mixed pair_coeff terms from sixthpower/sixthpower mixing rule
write_data      ${myid}.data
write_data      tensile_TP_4k_H2O_bonded_rlxed_erate_2e8_r1.data
System init for write_data ...
PPPM initialization ...
  using 12-bit tables for long-range coulomb (../kspace.cpp:342)
  G vector (1/distance) = 0.19390737
  grid = 10 10 12
  stencil order = 5
  estimated absolute RMS force accuracy = 0.023702187
  estimated relative force accuracy = 7.1378433e-05
  using double precision KISS FFT
  3d grid and FFT values/proc = 800 90
Generated 36 of 36 mixed pair_coeff terms from sixthpower/sixthpower mixing rule
Total wall time: 7:15:35
