LAMMPS data file via write_data, version 2 Aug 2023, timestep = 5000000, units = real

4158 atoms
9 atom types
4356 bonds
8 bond types
7128 angles
12 angle types
10809 dihedrals
14 dihedral types
2904 impropers
7 improper types

-16.18145954730576 16.18145954730576 xlo xhi
-16.931681959400397 16.931681959400397 ylo yhi
-19.060261358085846 19.060261358085846 zlo zhi

Masses

1 12.01115
2 12.01115
3 12.01115
4 12.01115
5 1.00797
6 1.00797
7 1.00797
8 15.9994
9 15.9994

Pair Coeffs # lj/class2/coul/long

1 0.054 4.01
2 0.054 4.01
3 0.064 4.01
4 0.064 4.01
5 0.02 2.3
6 0.013 1.098
7 0.013 1.098
8 0.26 3.61
9 0.24 3.535

Bond Coeffs # class2

1 1.501 321.902 -521.821 572.163
2 1.101 345 -691.89 844.6
3 1.42 400.395 -835.195 1313.01
4 1.417 470.836 -627.618 1327.63
5 1.0982 372.825 -803.453 894.317
6 1.3768 428.88 -738.235 1114.97
7 0.965 532.506 -1282.9 2004.77
8 0.97 563.28 -1428.22 1902.12

Angle Coeffs # class2

1 120.05 44.7148 -22.7352 0
2 105.8 52.7061 -12.109 -9.8681
3 111 44.3234 -9.4454 0
4 111 44.3234 -9.4454 0
5 110.5 46 0 0
6 118.9 61.0226 -34.9931 0
7 117.94 35.1558 -12.4682 0
8 123.42 73.6781 -21.6787 0
9 108.19 53.125 -8.5016 0
10 107.66 39.641 -12.921 -2.4318
11 108.728 58.5446 -10.8088 -12.4006
12 103.7 49.84 -11.6 -8

BondBond Coeffs

1 12.0676 1.501 1.417
2 -9.6879 1.42 0.965
3 0 1.501 1.501
4 2.9168 1.501 1.101
5 0 1.501 1.42
6 68.2856 1.417 1.417
7 1.0795 1.417 1.0982
8 48.4754 1.417 1.3768
9 20.6577 1.3768 0.965
10 5.3316 1.101 1.101
11 23.1979 1.101 1.42
12 -9.5 0.97 0.97

BondAngle Coeffs

1 47.0579 31.0771 1.501 1.417
2 28.58 18.9277 1.42 0.965
3 0 0 1.501 1.501
4 26.4608 11.7717 1.501 1.101
5 0 0 1.501 1.42
6 28.8708 28.8708 1.417 1.417
7 20.0033 24.2183 1.417 1.0982
8 58.479 107.681 1.417 1.3768
9 53.8614 23.9224 1.3768 0.965
10 18.103 18.103 1.101 1.101
11 4.6189 55.327 1.101 1.42
12 22.35 22.35 0.97 0.97

Dihedral Coeffs # class2

1 0 0 4.4072 0 0 0
2 0 0 1.559 0 0 0
3 0 0 3 0 0 0
4 -0.2802 0 -0.0678 0 -0.0122 0
5 0 0 0 0 0.13 0
6 8.3667 0 1.1932 0 0 0
7 0 0 3.9661 0 0 0
8 0 0 4.8498 0 0 0
9 -0.69 0 0.5097 0 0.0095 0
10 -0.2801 0 -0.0678 0 -0.0122 0
11 0.1863 0 -0.4338 0 -0.2121 0
12 0 0 1.8769 0 0 0
13 0 0 1.7234 0 0 0
14 0 0 0 0 0 0

AngleAngleTorsion Coeffs

1 -14.4097 120.05 118.9
2 4.4444 120.05 117.94
3 0 120.05 123.42
4 0 111 120.05
5 0 110.5 105.8
6 0 118.9 118.9
7 -4.8141 118.9 117.94
8 -21.0247 118.9 123.42
9 -4.6072 123.42 108.19
10 -5.8888 111 120.05
11 -10.5093 108.728 105.8
12 0.3598 117.94 117.94
13 4.2296 117.94 123.42
14 0 110.5 120.05

EndBondTorsion Coeffs

1 0 0.2421 0 0 -0.6918 0 1.501 1.417
2 0 -1.797 0 0 -0.4879 0 1.501 1.0982
3 0 0 0 0 0 0 1.501 1.3768
4 0 0 0 0 0 0 1.501 1.417
5 0 0 0 0 0 0 1.501 0.965
6 -0.1185 6.3204 0 -0.1185 6.3204 0 1.417 1.417
7 0 -6.8958 0 0 -0.4669 0 1.417 1.0982
8 0 0.2655 0 0 4.8905 0 1.417 1.3768
9 0.9 -1.3456 1.19 3.4132 0.5873 -0.1323 1.417 0.965
10 1.3997 0.7756 0 -0.5835 1.122 0.3978 1.101 1.417
11 -1.7554 1.3145 0.2263 0.2493 0.6803 0 1.101 0.965
12 0 -0.689 0 0 -0.689 0 1.0982 1.0982
13 0 -1.5867 0 0 4.2641 0 1.0982 1.3768
14 0 0 0 0 0 0 1.42 1.417

MiddleBondTorsion Coeffs

1 0 9.1792 0 1.417
2 0 3.9421 0 1.417
3 0 0 0 1.417
4 0 0 0 1.501
5 0 0 0 1.42
6 27.5989 -2.312 0 1.417
7 0 -1.1521 0 1.417
8 0 4.8255 0 1.417
9 1.158 3.2697 3.5132 1.3768
10 -5.5679 1.4083 0.301 1.501
11 0 0.9241 -0.5889 1.42
12 0 4.8228 0 1.417
13 0 5.5432 0 1.417
14 0 0 0 1.501

BondBond13 Coeffs

1 2.5085 1.501 1.417
2 0.8743 1.501 1.0982
3 0 1.501 1.3768
4 0 1.501 1.417
5 0 1.501 0.965
6 53 1.417 1.417
7 -6.2741 1.417 1.0982
8 -2.2436 1.417 1.3768
9 1.159 1.417 0.965
10 -3.4826 1.101 1.417
11 0 1.101 0.965
12 -1.7077 1.0982 1.0982
13 2.0517 1.0982 1.3768
14 0 1.42 1.417

AngleTorsion Coeffs

1 0 -4.4683 0 0 3.8987 0 120.05 118.9
2 0 -0.1242 0 0 3.4601 0 120.05 117.94
3 0 0 0 0 0 0 120.05 123.42
4 0 0 0 0 0 0 111 120.05
5 0 0 0 0 0 0 110.5 105.8
6 1.9767 1.0239 0 1.9767 1.0239 0 118.9 118.9
7 0 2.5014 0 0 2.7147 0 118.9 117.94
8 0 10.0155 0 0 1.7404 0 118.9 123.42
9 -5.136 -1.0122 0 4.6852 0.023 -0.598 123.42 108.19
10 4.6266 0.1632 0.0461 0.2251 0.6548 0.1237 111 120.05
11 -3.406 1.6396 0.0737 0 -0.281 -0.5944 108.728 105.8
12 0 2.4501 0 0 2.4501 0 117.94 117.94
13 0 1.8729 0 0 2.5706 0 117.94 123.42
14 0 0 0 0 0 0 110.5 120.05

Improper Coeffs # class2

1 7.8153 0
2 4.8912 0
3 13.0421 0
4 0 0
5 0 0
6 0 0
7 0 0

AngleAngle Coeffs

1 0 0 0 120.05 118.9 120.05
2 0 0 0 118.9 117.94 117.94
3 0 0 0 118.9 123.42 123.42
4 0 0 0 111 111 111
5 2.3794 3.0118 2.3794 111 111 107.66
6 0 0 0 111 108.728 110.5
7 2.4259 2.4259 2.1283 107.66 108.728 108.728

Atoms # full

469 1 9 -0.4506 -13.828464848402671 -12.509023840190734 -17.423885848086165 -13 -7 4
454 1 3 -0.1268 -10.980425208915609 -12.321975016948768 -16.227402388267464 -13 -7 4
457 1 3 0 -11.24382144728704 -15.280071242249672 -16.93734835397785 -13 -7 4
479 1 5 0.1268 -10.798076378427204 -12.32128854286628 -17.310422910890615 -13 -7 4
1583 1 5 0.1268 -13.81794362776434 -11.154635203506146 -12.417964463303477 -13 -8 3
486 1 6 0.4241 -13.320818293791737 -12.974872060993995 -16.772645416603872 -13 -7 4
458 1 3 -0.1268 -11.592479650081746 -14.580851967900392 -18.072894510474228 -13 -7 4
451 1 3 0 -10.983974467990038 -12.095745530502793 -13.476262353891249 -13 -7 4
477 1 1 -0.106 -11.128329272621368 -12.067713795883293 -12.029098383960958 -13 -7 4
456 1 3 -0.1268 -10.667205527809754 -13.258596377309175 -14.115357878341111 -13 -7 4
455 1 3 0 -10.570255205510515 -13.427414141035273 -15.512121730805243 -13 -7 4
480 1 5 0.1268 -10.285959162485277 -14.068615676952405 -13.45202987097262 -13 -7 4
473 1 1 -0.106 -10.103484124293928 -14.727802126628266 -16.123395324443248 -13 -7 4
468 1 3 0.0265 -12.978480695079268 -11.828121846640503 -18.345642205564253 -13 -7 4
453 1 3 0 -11.544118755235917 -11.1798712046605 -15.686471215121296 -13 -7 4
452 1 3 0.0265 -11.535915422739905 -11.098587827754828 -14.312878005379758 -13 -7 4
463 1 3 0 -12.316044257301959 -10.645018161421214 -17.955680348773686 -13 -7 4
470 1 1 -0.106 -12.391669932760502 -10.218331374525333 -16.553466442595678 -13 -7 4
1567 1 3 0 -12.458912774737623 -12.601422186240953 -11.509403765259938 -13 -8 3
1566 1 3 -0.1268 -13.725257942124582 -12.033239481037711 -11.67080016448968 -13 -8 3
3938 112 8 -0.82 -14.1758240279745 -13.693316336504246 -14.913026934049295 -13 -8 5
474 1 9 -0.4506 -11.96581952392685 -9.954067004686094 -13.693345802868755 -13 -7 4
498 1 5 0.053 -10.875019594966119 -11.062741458735816 -11.640836590491663 -13 -7 4
492 1 5 0.053 -9.716667375776169 -15.366294336073121 -15.335724144613067 -13 -7 4
1565 1 3 -0.1268 -14.847943946842562 -12.5329927613077 -11.058450808294442 -13 -8 3
499 1 5 0.053 -10.392295248111264 -12.694528407343613 -11.451524030635797 -13 -7 4
493 1 5 0.053 -9.288135807569358 -14.449412239826355 -16.824305146881386 -13 -7 4
3143 1 9 -0.4506 -15.175991693334952 -9.53565631008588 -13.873467752328837 -13 -7 4
487 1 5 0.053 -13.394359799829548 -10.354963732526226 -16.316612337238812 -13 -7 4
494 1 6 0.4241 -12.280330585400355 -9.343987863522496 -14.46654590017419 -13 -7 4
1568 1 3 -0.1268 -12.43254447791163 -13.732858996780298 -10.659993701103124 -13 -8 3
488 1 5 0.053 -12.11177205433328 -9.14085328667451 -16.50825704898895 -13 -7 4
3959 112 7 0.41 -15.083224761469333 -13.56363778781726 -14.603371877640065 -13 -8 5
1135 1 5 0.1268 -14.85524494271685 -16.18154251234451 -16.54333506593618 -12 -6 4
481 1 5 0.1268 -11.038837873000073 -13.608025660290659 -18.229374936069796 -13 -7 4
1564 1 3 0.0265 -14.77017039342648 -13.582111472476504 -10.141106567489386 -13 -8 3
1585 1 5 0.1268 -11.402007805055609 -14.264146657875568 -10.551019819598187 -13 -8 3
462 1 3 -0.1268 -11.824707248781408 -16.52796113832576 -16.78008275244679 -13 -7 4
460 1 3 0.0265 -13.13329818185506 -16.204604952540617 -18.76014458621339 -13 -7 4
2657 112 7 0.41 -13.55173946759653 -13.096611316780518 -14.426214858845253 -13 -8 5
1582 1 5 0.1268 -15.818919992020977 -12.231432553573757 -11.41662171175081 -13 -8 3
3165 1 6 0.4241 -15.099864260736203 -10.332121514258091 -14.459202643563186 -13 -7 4
1563 1 3 0 -13.532136070396867 -14.291862062574236 -9.986429539300053 -13 -8 3
1537 1 5 0.1268 -8.854757168695294 -16.248300148891992 -11.289845174557177 -14 -6 4
1623 1 5 0.1268 -8.289355502239909 -14.773329577106843 -18.258157778821925 -14 -8 3
483 1 5 0.1268 -10.706340667134647 -9.183028044917931 -18.61434592003888 -13 -7 4
3163 1 5 0.053 -15.983693335998563 -10.373953648866923 -16.680497350849834 -13 -7 4
4158 113 7 0.41 -13.101135840756594 -15.29145551476317 -13.602603873574854 -12 -5 4
464 1 3 -0.1268 -11.47278837301294 -9.966190897121928 -18.86509336206958 -13 -7 4
459 1 3 0 -12.537022759198711 -14.952296842003301 -18.97611220118032 -13 -7 4
4136 113 8 -0.82 -13.55922133326368 -16.112163485947573 -13.434169490409229 -12 -5 4
2704 113 7 0.41 -14.466103960678229 -15.892365666365407 -13.56955461079547 -12 -5 3
3423 35 7 0.41 -10.351311809192449 -9.342443907303064 -10.1500129279331 -14 -7 4
3744 126 8 -0.82 -8.580346825162461 -12.404556350243665 -9.668237449456717 -14 -5 3
1627 1 5 0.1268 -8.174131935785168 -10.97179884929563 -13.07199718904059 -14 -8 3
1610 1 3 -0.1268 -8.284577858678636 -9.928932260228418 -13.417298016547413 -14 -8 3
1628 1 5 0.1268 -8.51433524392726 -9.135184595913254 -11.369480047882993 -14 -8 3
1611 1 3 -0.1268 -8.31628971012365 -8.931164024962149 -12.448483445838594 -14 -8 3
1034 56 7 0.41 -12.200484162423319 -8.984469513229593 -11.484915515935285 -13 -7 4
1618 1 9 -0.4506 -8.401928624754435 -10.673496513261096 -15.649011936888105 -14 -8 3
1637 1 6 0.4241 -8.19420540185155 -10.225238596772623 -16.497719508676596 -14 -8 3
1609 1 3 0.0265 -8.310311081613722 -9.621345788202749 -14.749204285934642 -14 -8 3
2795 1 5 0.1268 -13.915433217479254 -9.590846753886552 -9.703793680115632 -13 -9 5
1992 1 5 0.053 -16.174694115833834 -11.144192677709679 -18.736478634909492 -15 -7 3
1528 1 9 -0.4506 -11.198118719949878 -16.803930773338603 -12.194564244232533 -14 -6 4
1590 1 5 0.053 -12.603973020077415 -16.143178196214418 -9.591168070593708 -13 -8 3
1084 59 7 0.41 -7.4509615586845825 -13.689485396939975 -14.946315988478165 -14 -8 4
698 1 5 0.053 -4.276465707918929 -16.469978843858684 -9.879679067786567 -13 -6 4
1621 1 5 0.1268 -8.061446368460205 -9.429883187993404 -18.791906024523364 -14 -8 3
1616 1 9 -0.4506 -3.504371947899134 -10.00121814686281 -18.704752568969784 -14 -8 3
3665 59 7 0.41 -6.1722731024489565 -13.457965352180803 -14.239366672060921 -13 -8 6
2135 75 7 0.41 -5.942915039928943 -15.572992206535524 -11.814568908177595 -15 -7 4
2115 75 8 -0.82 -5.604308789654365 -16.120914227292815 -12.634671053129356 -15 -7 4
1599 1 3 -0.1268 -7.085337465529447 -9.226267483964088 -18.267419954348448 -14 -8 3
3951 1 5 0.1268 -1.805052736683317 -13.56056106639049 -18.459029415086537 -13 -9 5
2575 1 5 0.1268 -3.1022772010032913 -9.474400072007068 -10.277883696224738 -13 -9 5
34 4 7 0.41 -7.104321468372072 -13.344978463601793 -10.502586467874792 -12 -7 6
947 4 7 0.41 -7.19825593238847 -13.689878689950705 -11.929566679895691 -12 -6 6
1604 1 3 0 -5.0379021032746 -13.732394819276195 -17.68591493612531 -14 -8 3
3644 59 8 -0.82 -6.86308138589135 -14.207399366107303 -14.362375070591444 -13 -8 6
1603 1 3 -0.1268 -6.214006866448177 -14.485908209371024 -17.682369303493665 -14 -8 3
847 46 7 0.41 -3.4261828531653222 -14.074705847318228 -11.60007813555218 -13 -8 6
2558 1 3 0.0265 -5.1448046976244015 -9.99281117934558 -10.71165690716582 -13 -9 5
2582 1 6 0.4241 -5.757867148836926 -9.537095993635223 -12.401543799694869 -13 -9 5
2563 1 9 -0.4506 -5.002954400438934 -10.052329744853406 -12.082796743648643 -13 -9 5
3932 1 3 -0.1268 -1.0115054359946338 -11.124707294118632 -16.108254981795838 -13 -9 5
3929 1 3 0 -2.908586590325811 -13.108845882450847 -16.682710321514218 -13 -9 5
3933 1 3 0 -2.0979049307176485 -11.339692281809295 -15.29707549895304 -13 -9 5
3934 1 3 0.0265 -2.968438608954523 -12.397685192469083 -15.497536404713827 -13 -9 5
3956 1 6 0.4241 -3.7914643068118306 -12.903243274073821 -13.93201445315416 -13 -9 5
3936 1 9 -0.4506 -4.139112951208322 -12.42775559175848 -14.632173983469876 -13 -9 5
652 1 3 0.0265 -1.692902074045092 -15.6052345269351 -10.649917796113945 -13 -6 4
3961 1 5 0.053 -3.9293903560772865 -14.729805713042962 -16.011411853315284 -13 -9 5
3931 1 3 0 -0.8504458043658225 -11.954791998320712 -17.269371828035304 -13 -9 5
3953 1 5 0.1268 -2.0548977192856377 -10.721936617681177 -14.367063779797174 -13 -9 5
1629 46 7 0.41 -4.113628642595767 -14.963385763590201 -12.609989957227375 -14 -7 4
826 46 8 -0.82 -3.600623744419444 -14.144152038842396 -12.594858453232101 -13 -8 6
926 4 8 -0.82 -6.582244036121088 -13.798395804163142 -11.174493492562899 -12 -6 6
3989 118 8 -0.82 -1.5573071784015404 -15.964071413985854 -14.613018496462168 -13 -6 5
2572 1 5 0.1268 -7.190584078076224 -10.61874323643725 -10.567640209521057 -13 -9 5
1624 1 5 0.1268 -6.117214926612936 -15.457924901605278 -17.13919329821556 -14 -8 3
1597 1 3 0.0265 -4.666004816592725 -9.36629225910197 -18.26008122504955 -14 -8 3
3939 1 1 -0.106 -3.8052911286394266 -14.249233967815702 -16.981205643639992 -13 -9 5
3930 1 3 -0.1268 -1.783287874031199 -12.965767918358079 -17.505018382232283 -13 -9 5
654 1 3 -0.1268 -0.47711786124010835 -13.450349626324314 -10.603628317715923 -13 -6 4
653 1 3 0 -0.5232318919398704 -14.790820430328843 -11.008168764814574 -13 -6 4
3952 1 5 0.1268 -0.1610905429659404 -10.3917427615978 -15.931039274346034 -13 -9 5
3062 118 7 0.41 -1.9738736139661253 -15.63485391924094 -13.78052987914999 -12 -6 7
1598 1 3 0 -5.900574587291356 -9.763222028326208 -18.764573072871478 -14 -8 3
3960 1 5 0.053 -3.5074063907475086 -15.086475243551005 -17.6626044482433 -13 -9 5
1602 1 3 -0.1268 -7.396772718907181 -13.996130502205595 -18.276922946893798 -14 -8 3
1605 1 3 -0.1268 -5.038280474358444 -12.608752343631338 -18.506235272677 -14 -8 3
1626 1 5 0.1268 -4.093400755975518 -12.022767434122079 -18.490454839851992 -14 -8 3
651 1 3 0 -2.6029105947438165 -15.024999597239734 -9.726879078750914 -13 -6 4
2553 1 3 -0.1268 -6.328555416525289 -10.203602976611359 -10.02693906209244 -13 -9 5
2557 1 3 -0.1268 -4.108607307110509 -9.60092282881808 -9.908523532792596 -13 -9 5
1634 1 6 0.4241 -3.0385623394822243 -10.187430215726753 -17.933073082067256 -14 -8 3
655 1 3 0 -1.456434312041429 -12.886522585441131 -9.76812884245408 -13 -6 4
1445 75 7 0.41 -6.069174468418852 -15.57089975079094 -13.36679370919228 -13 -8 6
4011 118 7 0.41 -1.446336880143237 -16.913931364055173 -14.39102222574861 -13 -6 5
693 1 5 0.053 -1.2694861410485974 -10.765185427795046 -9.823837395507665 -13 -6 4
1607 1 3 0.0265 -7.30161651476719 -12.824022080994883 -19.02976292709602 -14 -8 3
3227 96 7 0.41 -0.12678139397971933 -14.79064472745076 -15.265224351109719 -13 -5 5
3130 1 3 -0.1268 -15.371205868981074 -8.465445501258985 -16.073883555283842 -13 -7 4
3135 1 3 0.0265 -14.82101949872286 -8.454753848881497 -14.809362059040403 -13 -7 4
2772 1 4 -0.1268 -15.444423511630722 -8.109894160349159 -9.670562271967695 -13 -9 5
3898 1 5 0.053 -16.15209648656477 -5.4874072642718446 -18.45632228019947 -13 -7 4
820 1 1 -0.106 -11.604623466079868 -0.5397366873582605 -9.59157568763909 -13 -9 5
1710 56 8 -0.82 -11.831594096960963 -8.359182971064847 -10.807814008786861 -13 -6 3
4087 103 8 -0.82 -12.565616781207922 -5.797097457525361 -9.658512885701107 -16 -7 4
1636 1 5 0.053 -9.225714903701478 -8.23672980677179 -17.073147252314453 -14 -8 3
2349 1 5 0.1268 -14.90074453806182 -0.48011228474018 -18.404903737214596 -13 -7 4
3157 1 5 0.1268 -15.398457167682196 -7.59178322997713 -17.954167293607806 -13 -7 4
2351 1 5 0.053 -15.421855380934366 -2.484745137190604 -11.247625163891257 -13 -7 4
2331 1 3 -0.1268 -15.92592518994354 -0.697477441250367 -18.716616447844746 -13 -7 4
804 1 3 -0.1268 -9.477328322202874 -0.8428496603008746 -10.81221912584055 -13 -9 5
2335 1 1 -0.106 -16.124973624406845 -1.761487690088483 -16.407148125997566 -13 -7 4
813 1 3 0 -12.330354009598912 -0.8001837540051255 -10.910182982237693 -13 -9 5
1694 1 3 0 -8.73526659518762 -3.5842721960200468 -18.83909003071935 -13 -6 3
1730 56 7 0.41 -12.135548078489723 -7.467504816733397 -11.045372474141795 -13 -6 3
2346 1 5 0.1268 -15.931316667054812 -3.125537024344011 -14.23271518449715 -13 -7 4
1617 1 1 -0.106 -8.29311915055433 -7.834334931531085 -16.575187317128858 -14 -8 3
3131 1 3 -0.1268 -15.005678459105663 -7.475785192182954 -16.92431438065477 -13 -7 4
3173 1 5 0.053 -13.90858689035833 -7.959544089232592 -12.276533605398752 -13 -7 4
242 1 5 0.053 -9.477396513210184 -0.6972260117027815 -15.98024079061041 -14 -7 4
243 1 5 0.053 -9.692511871995201 -0.2784618840061057 -17.676645955001113 -14 -7 4
841 1 6 0.4241 -10.300036217143433 -6.849169553248531 -12.762453770165557 -13 -9 5
816 1 3 -0.1268 -13.19413142752805 -1.176375994312652 -13.474980209102267 -13 -9 5
818 1 3 0.0265 -12.405146716395924 -2.101033194547121 -11.427590912809595 -13 -9 5
835 1 5 0.1268 -13.530639950712679 -1.310751195477481 -14.58788987363031 -13 -9 5
821 1 1 -0.106 -12.218361834089539 -3.5454608829945577 -13.489213390248246 -13 -9 5
3158 1 5 0.1268 -13.882164993278398 -5.668555404519724 -17.292101563452892 -13 -7 4
839 1 5 0.053 -12.768063288974876 -4.4587550734776045 -13.352603413855874 -13 -9 5
3159 1 5 0.1268 -13.141626654736164 -5.484552156839754 -14.868541223845515 -13 -7 4
3134 1 3 0 -14.138001421015737 -7.3000282735330835 -14.36373565345718 -13 -7 4
3153 1 1 -0.106 -14.024665212283521 -6.982878195215612 -12.890120486915183 -13 -7 4
3132 1 3 0 -14.12594143445837 -6.494332287663974 -16.584249667496067 -13 -7 4
3133 1 3 -0.1268 -13.696806403432388 -6.374909550592534 -15.28392416575041 -13 -7 4
3174 1 5 0.053 -13.1237494435169 -6.282123113943946 -12.666397114768035 -13 -7 4
840 1 5 0.053 -12.360862402131799 -3.4491510395335148 -14.54610311440749 -13 -9 5
809 1 3 0 -10.701282520372839 -3.718424494497013 -13.240360919274387 -13 -9 5
822 1 9 -0.4506 -11.0107886694169 -6.076887750975539 -12.787297002274926 -13 -9 5
810 1 3 0.0265 -10.22870956034729 -4.929530990883146 -12.713358280827435 -13 -9 5
808 1 3 -0.1268 -9.808963799363596 -2.673421191994416 -13.292997290853094 -13 -9 5
817 1 3 0 -12.699792647838672 -2.2856192602595815 -12.780337654456405 -13 -9 5
831 1 5 0.1268 -10.165922253317937 -1.690079261275919 -13.612061828102284 -13 -9 5
2341 1 5 0.1268 -14.334194904323079 -4.430876140209033 -11.676094663217388 -13 -7 4
2318 1 3 0 -15.253284746806187 -6.2193443645104995 -12.500910600692595 -13 -7 4
2319 1 3 -0.1268 -15.27203248672932 -4.940579344634239 -11.983504251871619 -13 -7 4
1635 1 5 0.053 -8.308113563323085 -6.732646958607521 -16.68610118170929 -14 -8 3
819 1 9 -0.4506 -12.110602344214556 -3.1529959261214557 -10.557962896069904 -13 -9 5
2353 1 5 0.053 -15.05042083538419 -1.6151130917619358 -16.35509839130153 -13 -7 4
829 1 5 0.1268 -9.936873630602115 -1.7709444285946763 -11.170852806861209 -13 -9 5
1714 1 5 0.1268 -9.731600874785265 -5.187211079481878 -17.939814773262867 -13 -6 3
1693 1 3 -0.1268 -9.917624000303197 -4.292787374498934 -18.5721927081453 -13 -6 3
811 1 3 0 -8.869039009843776 -5.10898307139399 -12.372718166717814 -13 -9 5
807 1 3 0 -8.484794475668796 -2.6674679647641124 -12.767104877796548 -13 -9 5
1713 1 5 0.1268 -12.03811015324546 -4.550533284286969 -19.045819611359946 -13 -6 3
803 1 3 0 -10.225348391225332 -0.06717144717267942 -9.958836853713494 -13 -9 5
805 1 3 0 -8.305769157969632 -0.5583123822701168 -11.4717361624506 -13 -9 5
845 1 5 0.053 -8.89221838212637 -6.728342463170801 -10.874890160641073 -13 -9 5
1608 1 3 0 -8.334114538335633 -8.27644272691674 -15.135386546137184 -14 -8 3
1613 1 3 -0.1268 -8.33744993677458 -7.313437441356628 -14.166972335615748 -14 -8 3
1612 1 3 0 -8.405899480286603 -7.671559886384999 -12.858422325157164 -14 -8 3
825 1 1 -0.106 -8.33057701084379 -6.434136183726336 -11.798399738625305 -13 -9 5
836 1 6 0.4241 -11.970421194194566 -4.091941672410806 -10.995439842164014 -13 -9 5
1630 1 5 0.1268 -8.459938675821526 -6.25517441105756 -14.52280473209587 -14 -8 3
2794 1 5 0.1268 -15.890570444803053 -8.382038824122874 -10.649420134807459 -13 -9 5
164 1 3 -0.1268 -0.03602045069330373 -3.305087193358748 -11.137495579946052 -13 -9 5
2633 1 3 0 -0.11329636130404097 -7.548478019301374 -11.052077428172526 -13 -9 5
187 1 5 0.053 -0.30610390365512075 -3.0128657914252237 -14.12619697268727 -13 -9 5
3402 1 5 0.1268 -1.03522570728963 -3.4096622466143494 -18.669295131869028 -14 -7 4
2656 1 5 0.1268 -1.4356635252063157 -8.408169459417424 -12.357440355381307 -13 -9 5
1639 1 5 0.053 -2.501565724450849 -8.456299384156017 -16.76397104790953 -14 -8 3
3376 1 3 -0.1268 -0.34226113012774917 -4.2262068895712765 -18.983514538575115 -14 -7 4
812 1 3 -0.1268 -8.009633754847941 -3.9894565638261614 -12.454117571918545 -13 -9 5
1596 1 3 0 -4.608943614497312 -8.351321950500969 -17.24444773804828 -14 -8 3
2661 1 5 0.1268 -3.5885061866636097 -4.396577031595548 -12.58607469200801 -13 -9 5
2631 1 3 0 -0.7833377991076986 -5.646824773744855 -9.731266962389396 -13 -9 5
1025 1 1 -0.106 -7.461193507198965 -3.864920703783074 -18.07163689833945 -13 -7 4
1041 1 6 0.4241 -6.188067437940706 -1.5901002930118775 -18.541931731103915 -13 -7 4
2667 1 5 0.053 -4.423113550616257 -7.72082138898981 -11.82023867708823 -13 -9 5
2660 1 5 0.1268 -3.5882871954468545 -8.294274387750814 -14.122748505040581 -13 -9 5
163 1 3 0 -0.2593723535341148 -2.2621797684393226 -12.078297308347409 -13 -9 5
168 1 3 0.0265 -1.080464329413818 -1.187073802007724 -11.618315474516283 -13 -9 5
843 1 5 0.053 -7.8610800640456535 -0.8447747907057774 -13.57526261578927 -13 -9 5
194 1 6 0.4241 -0.5568085626596364 -1.6416003568346476 -16.989608695521174 -13 -9 5
1011 1 3 0 -6.2399747849773455 -4.1586999479909075 -18.933425964519333 -13 -7 4
2646 1 3 -0.1268 -3.5958874448787324 -0.756255241181595 -15.008983006419887 -13 -9 5
2664 1 5 0.1268 -2.544729190654053 -0.6927920918729598 -14.644521976466438 -13 -9 5
1619 1 1 -0.106 -3.277554978043682 -7.698597741388623 -16.860265732109536 -14 -8 3
2640 1 3 -0.1268 -3.4772158062117633 -5.053652934294078 -13.510016605566179 -13 -9 5
1355 71 7 0.41 -3.9102387582387816 -2.4358372322116626 -11.64339533142579 -14 -6 4
1638 1 5 0.053 -2.8686854994376656 -7.168565244496799 -17.727816544288252 -14 -8 3
2634 1 3 -0.1268 -1.3825918063475289 -7.635080990421937 -11.587691107565472 -13 -9 5
2645 1 3 0 -3.9626275241588633 -2.1441361904824916 -15.120966770881747 -13 -9 5
1601 1 3 -0.1268 -5.806525804948304 -7.8903923448635 -16.673399060449295 -14 -8 3
2662 1 5 0.1268 -6.987683931963685 -1.3608508052552253 -16.63168500145989 -13 -9 5
2650 1 1 -0.106 -2.868970995017758 -3.0867303073256327 -14.684525305618742 -13 -9 5
2668 1 5 0.053 -2.4654712856627032 -2.878177810870614 -13.690168550492073 -13 -9 5
2402 1 6 0.4241 -5.17139575171691 -1.6008967257648994 -9.641608891705928 -14 -9 4
842 1 5 0.053 -6.65870066297901 -1.5708073375901002 -12.523357302657827 -13 -9 5
2651 1 9 -0.4506 -3.082215136571506 -4.8595977104755175 -9.77825967542934 -13 -9 5
3403 1 5 0.1268 -1.1293377816443328 -5.5895366163489815 -17.412762647297136 -14 -7 4
3224 71 7 0.41 -4.659734033910889 -3.5979493944262053 -11.136568729689548 -14 -6 4
1845 83 8 -0.82 -2.2983284576084806 -1.40069250414202 -17.81010362384948 -13 -10 6
3377 1 3 0 -0.44581804193673413 -5.493512300643342 -18.335191130585045 -14 -7 4
169 1 9 -0.4506 -1.6536721229945623 -0.25141813842529004 -12.486839303949335 -13 -9 5
2612 83 7 0.41 -2.719927151297723 -0.9346585045780369 -17.063820273807977 -13 -10 6
2639 1 3 0 -3.526633365914318 -6.3730266157454025 -13.31965928974876 -13 -9 5
2637 1 3 0 -3.310581094585535 -6.765157316686256 -15.68462099980265 -13 -9 5
167 1 3 0 -1.2603123243063514 -1.0300542907167447 -10.262808967195657 -13 -9 5
1046 1 5 0.053 -7.406139221602629 -3.024974540053707 -17.33124200935222 -13 -7 4
1622 1 5 0.1268 -5.927818836925592 -7.3073276120620765 -15.729002955690225 -14 -8 3
2649 1 1 -0.106 -3.7382052569281328 -6.848229575191915 -11.878728264883316 -13 -9 5
2635 1 3 0 -2.413915343430986 -6.777363458331061 -11.193423892770436 -13 -9 5
2643 1 3 -0.1268 -5.953449808096444 -1.2827230466856534 -16.193082763153225 -13 -9 5
2638 1 3 -0.1268 -3.417966152092003 -7.241163956631993 -14.37742220760407 -13 -9 5
2671 1 6 0.4241 -3.3433937278176256 -5.482048864768117 -17.810728304131096 -13 -9 5
832 1 5 0.1268 -7.015510956412523 -4.192660997650677 -11.98178098334979 -13 -9 5
2642 1 3 0.0265 -3.264302614897302 -5.386938651696751 -15.89892835168416 -13 -9 5
2644 1 3 -0.1268 -5.201029836280593 -2.358478685500989 -15.695318765368338 -13 -9 5
2641 1 3 0 -3.3177971485922235 -4.510769389663325 -14.747665007045189 -13 -9 5
2636 1 3 0.0265 -2.1208678165262356 -5.7276859519173975 -10.19832891049435 -13 -9 5
846 1 5 0.053 -7.287574743379805 -6.273521640769248 -11.486711760328323 -13 -9 5
2669 1 5 0.053 -2.0770000321053423 -3.0283743031346404 -15.476142748514603 -13 -9 5
1865 83 7 0.41 -3.123647911671645 -1.6955314884635584 -18.33140796051714 -13 -10 6
3203 71 8 -0.82 -4.739954668722929 -2.608412890190836 -11.141458349188275 -14 -6 4
1045 1 5 0.053 -7.632646915713101 -4.736549672812 -17.419790648737468 -13 -7 4
2652 1 9 -0.4506 -3.1608437816669657 -4.8286516769423 -17.159281389700592 -13 -9 5
2663 1 5 0.1268 -5.508521844512934 -3.3939715473478564 -15.88079342851216 -13 -9 5
823 1 1 -0.106 -7.714355049135994 -1.3846155858364995 -12.638437516396657 -13 -9 5
1600 1 3 -0.1268 -6.986706329576469 -8.305921800746232 -17.21160416925285 -14 -8 3
2666 1 5 0.053 -4.342711734666281 -6.069585873107727 -11.365094454934674 -13 -9 5
165 1 3 0 -0.5292354253237139 -3.3033341896981536 -9.849911078649 -13 -9 5
2395 1 5 0.1268 -7.357758618222968 -2.6398349724747163 -9.701803736535318 -14 -9 4
1022 1 9 -0.4506 -5.2793697302557305 -1.8754813070318281 -18.86792832609305 -13 -7 4
1588 1 6 0.4241 -14.797286799427956 -12.312959114781375 -7.080976090603594 -13 -8 3
1589 1 6 0.4241 -15.032689456733577 -14.180592989906136 -3.4818977748228495 -13 -8 3
1571 1 9 -0.4506 -14.191322499503952 -14.578705040206762 -3.6043124432279647 -13 -8 3
1552 1 3 0.0265 -13.977902783044982 -14.849082464622825 -4.959218697398985 -13 -8 3
1555 1 3 0 -13.526015694785363 -15.267091408792405 -7.689105153555044 -13 -8 3
1553 1 3 0 -13.517959308360787 -13.841419164346616 -5.740344639683254 -13 -8 3
1570 1 9 -0.4506 -15.545381869737263 -11.8109707450979 -6.787099906873673 -13 -8 3
1561 1 3 0 -14.282690263442134 -11.616823336437712 -4.698570390308381 -13 -8 3
1569 1 1 -0.106 -13.104102459257918 -12.509495772361753 -5.133395127284029 -13 -8 3
1562 1 3 0.0265 -15.32531462574032 -11.249007240115317 -5.537679142362766 -13 -8 3
1554 1 3 -0.1268 -13.339415567205686 -14.018540318344662 -7.045563013671256 -13 -8 3
1581 1 5 0.1268 -13.518487040350603 -11.524271478126405 -2.7187826304065688 -13 -8 3
1586 1 5 0.053 -12.3801338522171 -12.62377166270723 -4.2804907352210595 -13 -8 3
1576 1 5 0.1268 -12.96813608699889 -13.263634900684178 -7.703802616839798 -13 -8 3
1560 1 3 -0.1268 -14.280223939616546 -11.103874981560594 -3.327485904071416 -13 -8 3
1587 1 5 0.053 -12.487170512180048 -11.931790703248955 -5.841171077626829 -13 -8 3
1572 1 1 -0.106 -13.423815307684757 -15.59536802699201 -9.173513448803298 -13 -8 3
1559 1 3 0 -15.19214468013836 -10.143524661920246 -2.8404402513626366 -13 -8 3
2801 1 5 0.053 -13.226797741655467 -10.273309817331636 -6.722407560519057 -13 -9 5
1202 1 3 0.0265 -9.49864012004568 -12.69594614643121 -6.1338698154800095 -15 -7 3
1226 1 5 0.053 -11.074643288055164 -14.81362938970551 -4.957331001915406 -15 -7 3
1210 1 9 -0.4506 -9.85487552906432 -13.366109989128232 -7.280222141029551 -15 -7 3
1228 1 6 0.4241 -10.064950093736911 -14.29606038736045 -7.05728873878285 -15 -7 3
1201 1 3 0 -9.591992338075078 -13.181245997570052 -4.863156042253937 -15 -7 3
1209 1 1 -0.106 -10.09242009688161 -14.556113880979053 -4.5171879758621944 -15 -7 3
1324 1 5 0.053 -9.3862552477645 -9.22774905423817 -2.995986510637639 -14 -6 4
1551 1 3 0 -14.240499626264425 -16.160451353732302 -5.486364070569431 -13 -8 3
27 1 1 -0.106 -15.19683831210113 -9.641143632243583 -1.4446173768343016 -12 -8 4
1200 1 3 -0.1268 -9.326338636627872 -12.360247728306144 -3.8097909691907894 -15 -7 3
1556 1 3 -0.1268 -14.038611881265648 -16.28747628660536 -6.86510313065895 -13 -8 3
3024 1 5 0.1268 -11.553242006513017 -9.773543160444007 -1.636264621558233 -13 -7 5
3025 1 5 0.1268 -11.659118857190233 -12.310192472258784 -1.9395402349821573 -13 -7 5
1323 1 5 0.053 -9.30680081001288 -10.485341036415615 -1.7933075261677551 -14 -6 4
2802 1 5 0.053 -12.156688980723533 -9.635726695297503 -7.980534540506316 -13 -9 5
1227 1 5 0.053 -10.14453375273715 -14.724810889202017 -3.4403098022585716 -15 -7 3
3352 67 8 -0.82 -11.80557163101754 -16.04404252050398 -1.7711662074823913 -12 -7 3
3007 1 3 -0.1268 -11.691288270621436 -11.854648205512902 -0.9071638917804883 -13 -7 5
1187 1 6 0.4241 -9.864337943550908 -15.874994498530606 -1.5890707163813715 -14 -7 4
1199 1 3 0 -8.958914722785774 -11.058915658267507 -3.9000092208426693 -15 -7 3
1221 1 5 0.1268 -9.412402401545679 -12.761328655339728 -2.782527092841903 -15 -7 3
2784 1 1 -0.106 -12.842705007052572 -9.323191033428282 -7.146872940633179 -13 -9 5
1304 1 1 -0.106 -8.833801373141352 -10.140730966187974 -2.6919195953607407 -14 -6 4
3006 1 3 -0.1268 -11.616052580954225 -10.468034521930782 -0.7869524812583784 -13 -7 5
1168 1 9 -0.4506 -9.301670092531968 -15.246187452288252 -1.0656160940957875 -14 -7 4
1193 1 3 0 -9.04600498276604 -15.585807630334962 -5.013615594491949 -15 -7 3
49 1 5 0.053 -14.944212535509099 -10.466730518541208 -0.8211293156173056 -12 -8 4
3374 67 7 0.41 -12.285713285849909 -16.536996219480542 -1.0558057957474851 -12 -7 3
1573 1 9 -0.4506 -15.90178939075197 -14.009973165460444 -9.510245022393997 -13 -8 3
3699 126 7 0.41 -9.032642675537438 -12.78130730204599 -8.91174253945851 -13 -7 6
2793 1 5 0.1268 -13.1623045172318 -9.31481041300902 -4.586048560492015 -13 -9 5
584 35 7 0.41 -9.470299847835882 -8.6410457607783 -9.07579669983981 -13 -7 4