LAMMPS data file via write_data, version 2 Aug 2023, timestep = 5000000, units = real

4158 atoms
9 atom types
4356 bonds
8 bond types
7128 angles
12 angle types
10809 dihedrals
14 dihedral types
2904 impropers
7 improper types

-16.448279687956198 16.448279687956198 xlo xhi
-19.090054285417306 19.090054285417306 ylo yhi
-16.860572230857798 16.860572230857798 zlo zhi

Masses

1 12.01115
2 12.01115
3 12.01115
4 12.01115
5 1.00797
6 1.00797
7 1.00797
8 15.9994
9 15.9994

Pair Coeffs # lj/class2/coul/long

1 0.054 4.01
2 0.054 4.01
3 0.064 4.01
4 0.064 4.01
5 0.02 2.3
6 0.013 1.098
7 0.013 1.098
8 0.26 3.61
9 0.24 3.535

Bond Coeffs # class2

1 1.501 321.902 -521.821 572.163
2 1.101 345 -691.89 844.6
3 1.42 400.395 -835.195 1313.01
4 1.417 470.836 -627.618 1327.63
5 1.0982 372.825 -803.453 894.317
6 1.3768 428.88 -738.235 1114.97
7 0.965 532.506 -1282.9 2004.77
8 0.97 563.28 -1428.22 1902.12

Angle Coeffs # class2

1 120.05 44.7148 -22.7352 0
2 105.8 52.7061 -12.109 -9.8681
3 111 44.3234 -9.4454 0
4 111 44.3234 -9.4454 0
5 110.5 46 0 0
6 118.9 61.0226 -34.9931 0
7 117.94 35.1558 -12.4682 0
8 123.42 73.6781 -21.6787 0
9 108.19 53.125 -8.5016 0
10 107.66 39.641 -12.921 -2.4318
11 108.728 58.5446 -10.8088 -12.4006
12 103.7 49.84 -11.6 -8

BondBond Coeffs

1 12.0676 1.501 1.417
2 -9.6879 1.42 0.965
3 0 1.501 1.501
4 2.9168 1.501 1.101
5 0 1.501 1.42
6 68.2856 1.417 1.417
7 1.0795 1.417 1.0982
8 48.4754 1.417 1.3768
9 20.6577 1.3768 0.965
10 5.3316 1.101 1.101
11 23.1979 1.101 1.42
12 -9.5 0.97 0.97

BondAngle Coeffs

1 47.0579 31.0771 1.501 1.417
2 28.58 18.9277 1.42 0.965
3 0 0 1.501 1.501
4 26.4608 11.7717 1.501 1.101
5 0 0 1.501 1.42
6 28.8708 28.8708 1.417 1.417
7 20.0033 24.2183 1.417 1.0982
8 58.479 107.681 1.417 1.3768
9 53.8614 23.9224 1.3768 0.965
10 18.103 18.103 1.101 1.101
11 4.6189 55.327 1.101 1.42
12 22.35 22.35 0.97 0.97

Dihedral Coeffs # class2

1 0 0 4.4072 0 0 0
2 0 0 1.559 0 0 0
3 0 0 3 0 0 0
4 -0.2802 0 -0.0678 0 -0.0122 0
5 0 0 0 0 0.13 0
6 8.3667 0 1.1932 0 0 0
7 0 0 3.9661 0 0 0
8 0 0 4.8498 0 0 0
9 -0.69 0 0.5097 0 0.0095 0
10 -0.2801 0 -0.0678 0 -0.0122 0
11 0.1863 0 -0.4338 0 -0.2121 0
12 0 0 1.8769 0 0 0
13 0 0 1.7234 0 0 0
14 0 0 0 0 0 0

AngleAngleTorsion Coeffs

1 -14.4097 120.05 118.9
2 4.4444 120.05 117.94
3 0 120.05 123.42
4 0 111 120.05
5 0 110.5 105.8
6 0 118.9 118.9
7 -4.8141 118.9 117.94
8 -21.0247 118.9 123.42
9 -4.6072 123.42 108.19
10 -5.8888 111 120.05
11 -10.5093 108.728 105.8
12 0.3598 117.94 117.94
13 4.2296 117.94 123.42
14 0 110.5 120.05

EndBondTorsion Coeffs

1 0 0.2421 0 0 -0.6918 0 1.501 1.417
2 0 -1.797 0 0 -0.4879 0 1.501 1.0982
3 0 0 0 0 0 0 1.501 1.3768
4 0 0 0 0 0 0 1.501 1.417
5 0 0 0 0 0 0 1.501 0.965
6 -0.1185 6.3204 0 -0.1185 6.3204 0 1.417 1.417
7 0 -6.8958 0 0 -0.4669 0 1.417 1.0982
8 0 0.2655 0 0 4.8905 0 1.417 1.3768
9 0.9 -1.3456 1.19 3.4132 0.5873 -0.1323 1.417 0.965
10 1.3997 0.7756 0 -0.5835 1.122 0.3978 1.101 1.417
11 -1.7554 1.3145 0.2263 0.2493 0.6803 0 1.101 0.965
12 0 -0.689 0 0 -0.689 0 1.0982 1.0982
13 0 -1.5867 0 0 4.2641 0 1.0982 1.3768
14 0 0 0 0 0 0 1.42 1.417

MiddleBondTorsion Coeffs

1 0 9.1792 0 1.417
2 0 3.9421 0 1.417
3 0 0 0 1.417
4 0 0 0 1.501
5 0 0 0 1.42
6 27.5989 -2.312 0 1.417
7 0 -1.1521 0 1.417
8 0 4.8255 0 1.417
9 1.158 3.2697 3.5132 1.3768
10 -5.5679 1.4083 0.301 1.501
11 0 0.9241 -0.5889 1.42
12 0 4.8228 0 1.417
13 0 5.5432 0 1.417
14 0 0 0 1.501

BondBond13 Coeffs

1 2.5085 1.501 1.417
2 0.8743 1.501 1.0982
3 0 1.501 1.3768
4 0 1.501 1.417
5 0 1.501 0.965
6 53 1.417 1.417
7 -6.2741 1.417 1.0982
8 -2.2436 1.417 1.3768
9 1.159 1.417 0.965
10 -3.4826 1.101 1.417
11 0 1.101 0.965
12 -1.7077 1.0982 1.0982
13 2.0517 1.0982 1.3768
14 0 1.42 1.417

AngleTorsion Coeffs

1 0 -4.4683 0 0 3.8987 0 120.05 118.9
2 0 -0.1242 0 0 3.4601 0 120.05 117.94
3 0 0 0 0 0 0 120.05 123.42
4 0 0 0 0 0 0 111 120.05
5 0 0 0 0 0 0 110.5 105.8
6 1.9767 1.0239 0 1.9767 1.0239 0 118.9 118.9
7 0 2.5014 0 0 2.7147 0 118.9 117.94
8 0 10.0155 0 0 1.7404 0 118.9 123.42
9 -5.136 -1.0122 0 4.6852 0.023 -0.598 123.42 108.19
10 4.6266 0.1632 0.0461 0.2251 0.6548 0.1237 111 120.05
11 -3.406 1.6396 0.0737 0 -0.281 -0.5944 108.728 105.8
12 0 2.4501 0 0 2.4501 0 117.94 117.94
13 0 1.8729 0 0 2.5706 0 117.94 123.42
14 0 0 0 0 0 0 110.5 120.05

Improper Coeffs # class2

1 7.8153 0
2 4.8912 0
3 13.0421 0
4 0 0
5 0 0
6 0 0
7 0 0

AngleAngle Coeffs

1 0 0 0 120.05 118.9 120.05
2 0 0 0 118.9 117.94 117.94
3 0 0 0 118.9 123.42 123.42
4 0 0 0 111 111 111
5 2.3794 3.0118 2.3794 111 111 107.66
6 0 0 0 111 108.728 110.5
7 2.4259 2.4259 2.1283 107.66 108.728 108.728

Atoms # full

479 1 5 0.1268 -14.574962334631026 -11.542614867247934 -15.988932894337571 5 5 -6
401 1 3 0 -11.779378485714123 -14.578423233855244 -12.555842485624623 2 4 -4
449 1 5 0.053 -13.587228351315087 -14.900242023798317 -13.796985097851163 2 4 -4
448 1 5 0.053 -12.080513801472698 -14.580807258339995 -14.65949049964863 2 4 -4
427 1 1 -0.106 -12.509279321776434 -15.122323110488328 -13.770043633108164 2 4 -4
406 1 3 -0.1268 -12.447658499308064 -14.584143438591202 -11.397732060635356 2 4 -4
430 1 5 0.1268 -13.517712150246894 -14.89539988225324 -11.369085145916712 2 4 -4
405 1 3 0 -11.778888681473521 -14.297330650589393 -10.216374344498302 2 4 -4
3234 1 3 0 -12.213535123617408 -16.597057917676494 -13.863322447643196 2 5 -5
3259 1 5 0.1268 -11.374349485920028 -16.430940262623558 -15.862660255093514 2 5 -5
3260 1 5 0.1268 -12.711772483205628 -17.018877826775153 -11.877158703463063 2 5 -5
3239 1 3 -0.1268 -12.46202608160193 -17.501309018218805 -12.825049592628194 2 5 -5
3235 1 3 -0.1268 -11.712637853409717 -17.11997249429429 -15.031222458928161 2 5 -5
402 1 3 0.0265 -10.496271753935716 -13.981420471346157 -12.624719536582987 2 4 -4
404 1 3 -0.1268 -10.481064234310022 -13.864761231781612 -10.292395702436043 2 4 -4
403 1 3 0 -9.877139999316206 -13.604291115603875 -11.483289770838287 2 4 -4
3266 1 5 0.1268 -11.307001437940803 -18.049482173527892 -10.003200001206528 2 5 -5
431 1 5 0.1268 -11.700129008982689 -11.9932091378267 -9.63642248012625 2 4 -4
424 1 9 -0.4506 -9.895966901651363 -13.689172711696255 -13.869180874998623 2 4 -4
429 1 5 0.1268 -9.986451964724335 -13.61616260074861 -9.35433711632777 2 4 -4
413 1 3 0 -8.953521659866215 -11.3455710551573 -11.238018207022058 2 4 -4
1940 98 7 0.41 -12.939121353056104 -12.107790773238694 -14.028056076746465 1 5 -4
3322 98 7 0.41 -11.744448014920529 -11.2562094485588 -14.45106677322839 3 4 -7
3301 98 8 -0.82 -12.648163309519758 -11.14420547087694 -14.157415484717273 3 4 -7
418 1 3 0.0265 -9.369103898005044 -10.938401251576488 -9.939172659444196 2 4 -4
433 1 5 0.1268 -8.966815129135604 -10.887425507688198 -13.373648464452916 2 4 -4
3664 1 5 0.053 -14.018958710084046 -11.907860243936899 -11.538774128672049 2 6 -3
485 1 5 0.1268 -15.055456925852685 -14.01444133532265 -13.291933349523502 5 5 -6
3643 1 1 -0.106 -14.99081031470736 -12.265188675022827 -11.208255631273374 2 6 -3
488 1 5 0.053 -15.022915403507913 -14.38387617846027 -15.552699307927123 5 5 -6
3663 1 5 0.053 -14.869481526609377 -13.360423820819461 -11.09226453150384 2 6 -3
464 1 3 -0.1268 -15.75700040619653 -13.17308722462511 -13.37024835010274 5 5 -6
414 1 3 -0.1268 -9.229104396180677 -10.559091407460013 -12.351744869825588 2 4 -4
444 1 6 0.4241 -9.017996246275004 -14.080001174157804 -13.784480383866322 2 4 -4
3236 1 3 0 -11.693358512257902 -18.471797042615556 -15.299053994296258 2 5 -5
3624 1 3 0 -15.45188412978984 -11.670188359819726 -9.884569093646 2 6 -3
465 1 3 0 -15.93480826209722 -12.163174072736801 -12.373988765281343 5 5 -6
3014 1 2 0.027 -15.504181952920693 -17.808881233798857 -15.14188395854309 4 5 -5
470 1 1 -0.106 -15.900479312972731 -13.799280989108386 -15.857735260331754 5 5 -6
3033 1 5 0.053 -15.04804318206999 -18.280784371402905 -14.205116153094938 4 5 -5
3034 1 5 0.053 -14.821683510393 -16.988065505834733 -15.441869861203557 4 5 -5
3633 1 9 -0.4506 -15.94188326362255 -13.824543778281264 -8.944241268869826 2 6 -3
3623 1 3 -0.1268 -15.423926360473711 -10.309369656222854 -9.741487247831646 2 6 -3
417 1 3 0 -10.248749371968527 -9.87260709512238 -9.894635622797542 2 4 -4
3625 1 3 0.0265 -16.033204257001422 -12.42588519090054 -8.859039509020025 2 6 -3
420 1 1 -0.106 -8.54544409119298 -12.799450373176658 -11.495873636805824 2 4 -4
419 1 9 -0.4506 -8.82218325384867 -11.565265276687377 -8.849859130198592 2 4 -4
1550 16 7 0.41 -8.974134911752921 -18.33851262371008 -12.036004910988208 3 5 -5
2373 1 3 -0.1268 -8.444228160702085 -13.70861112449892 -16.747586711439418 4 4 -6
2376 1 3 -0.1268 -9.447861065517078 -11.19655439772771 -16.443791754870848 4 4 -6
3649 1 5 0.1268 -14.857477691668523 -9.64847364582859 -10.47999041081648 2 6 -3
3622 1 3 0 -16.053014941176126 -9.655758451278027 -8.723376691594428 2 6 -3
443 1 5 0.053 -13.59965546147214 -14.346935772109022 -9.028657217670904 2 4 -4
423 1 1 -0.106 -12.521935652169574 -14.278861094133841 -8.862447557411844 2 4 -4
2394 1 5 0.1268 -9.799395968771911 -10.1517307259806 -16.54658573188018 4 4 -6
3238 1 3 0 -12.278266671664529 -18.863116237037424 -12.965676810560426 2 5 -5
408 1 3 -0.1268 -11.789981618396048 -11.916520097308812 -8.48761125008866 2 4 -4
3017 14 7 0.41 -8.323945751891682 -17.282984526922238 -16.062278680944686 5 5 -7
3246 1 3 -0.1268 -10.772080137110539 -19.017258953256206 -10.027818576925736 2 5 -5
3015 1 9 -0.5571 -15.44992845421352 -18.839646367569117 -16.11311929796208 4 5 -5
3454 86 7 0.41 -8.411597224813827 -15.46823421727473 -10.261561947116078 1 6 -5
3035 1 6 0.4241 -16.09049554346783 -18.554059890691793 -16.778900900001577 4 5 -5
3240 1 1 -0.106 -10.97766651364509 -18.96201759057006 -16.545538481879106 2 5 -5
3261 1 5 0.053 -9.916101846014211 -18.964835378226905 -16.279898556278212 2 5 -5
463 1 3 0 -16.39535184537382 -13.004756926214547 -14.642306694574483 5 5 -6
1530 16 8 -0.82 -8.076174117834725 -17.942638565629444 -11.90051526976308 3 5 -5
2377 1 3 -0.1268 -8.220937679927243 -11.513119337982783 -15.884183018513209 4 4 -6
247 14 7 0.41 -7.982828277976337 -18.221534350140164 -14.884722060310871 5 5 -7
226 14 8 -0.82 -7.599680631228692 -17.419991575658255 -15.34272591776373 5 5 -7
438 1 5 0.053 -7.94226340524034 -12.937679027147484 -12.358039745616647 2 4 -4
2378 1 3 0.0265 -7.708840738341944 -12.886004424661229 -15.919860247947808 4 4 -6
934 56 7 0.41 -5.77013374422261 -12.872433040184864 -9.231202380910428 2 6 -2
1580 87 7 0.41 -7.502084055165769 -16.149871084664973 -13.854392806490639 2 8 -2
234 16 7 0.41 -7.64638760796119 -18.624320596733146 -11.411940881818518 3 5 -5
2395 1 5 0.1268 -7.732811960140932 -10.818035541385045 -15.272871262934986 4 4 -6
3325 87 7 0.41 -7.481867128899353 -16.17287697884465 -12.346018235773645 3 6 -5
2245 1 1 -0.106 -0.4318450757949641 -18.806060469852735 -14.809003926450828 2 5 -6
2264 1 5 0.053 -0.6210174436710858 -18.91456035542842 -13.713031510927852 2 5 -6
437 1 5 0.053 -7.902792421025927 -13.118102228408535 -10.687991003587719 2 4 -4
3303 87 8 -0.82 -7.518622528379479 -15.472307318718155 -13.06744756624249 3 6 -5
962 1 3 -0.1268 -4.742946026191829 -18.665632422047832 -12.792817900659623 3 5 -5
991 1 6 0.4241 -2.010388720577806 -17.05845718041621 -10.089213666184758 3 5 -5
1362 1 5 0.053 -3.790070000565514 -11.782446581630676 -10.810239084703323 3 4 -5
1354 1 5 0.1268 -2.0913898320773328 -16.648552580134496 -13.517232240354083 3 4 -5
996 1 5 0.053 -5.126541627764132 -16.281373596758016 -13.214882381353046 3 5 -5
1333 1 3 -0.1268 -2.2746892810607022 -15.616369131120543 -13.231736028052994 3 4 -5
1334 1 3 0 -3.449089307115484 -15.32120222309488 -12.578826575579733 3 4 -5
1356 1 5 0.1268 -4.58332219507856 -13.754020884162985 -11.880719762947557 3 4 -5
1351 1 5 0.1268 -4.310668528503209 -10.988867687795231 -13.521298488073768 3 4 -5
1360 1 5 0.1268 -3.396113709535605 -11.466478597202517 -15.304742598617269 3 4 -5
1336 1 3 0 -2.5809537369097395 -13.034184203552872 -12.072868682313945 3 4 -5
1335 1 3 -0.1268 -3.573955810141987 -14.031141151454742 -12.117012761952278 3 4 -5
1332 1 3 -0.1268 -1.3384078155511556 -14.614302954781323 -13.349819196803718 3 4 -5
995 1 5 0.053 -5.294858680309652 -15.77107396180276 -11.505109567155316 3 5 -5
975 1 1 -0.106 -4.66007200845606 -16.203603339231762 -12.289494086401703 3 5 -5
972 1 9 -0.4506 -3.0037080477711555 -16.921963393788346 -10.040879609107426 3 5 -5
961 1 3 0 -4.274339961333347 -17.621443857550588 -11.952038953305157 3 5 -5
1708 1 9 -0.4506 -3.5097193747507553 -16.73944438869418 -15.792520132771555 3 5 -6
1328 1 3 -0.1268 -2.657526067608286 -10.411171498641842 -12.07465985271544 3 4 -5
1329 1 3 -0.1268 -3.460604414487932 -10.305157700943095 -13.135996880694425 3 4 -5
1344 1 1 -0.106 -2.7981819887787562 -11.71480148618647 -11.250467195568467 3 4 -5
1337 1 3 0.0265 -1.41634387761831 -13.328165637279104 -12.794303345825606 3 4 -5
2383 1 9 -0.4506 -6.601589771983948 -13.270807821565143 -15.298580555664936 4 4 -6
2263 1 5 0.053 -1.006259370080958 -17.944724899043813 -15.19078421475014 2 5 -6
1361 1 5 0.053 -1.961114885706623 -11.804887515098379 -10.55324589948875 3 4 -5
1699 1 3 0.0265 -3.8106024695024896 -17.81931574120573 -16.59004255230068 3 5 -6
1727 1 6 0.4241 -4.059629118364299 -16.055994650209165 -16.100886876622308 3 5 -6
960 1 3 0.0265 -3.5827954984790935 -17.982316979519986 -10.816982257780719 3 5 -5
1729 1 5 0.053 -1.8317156425857828 -13.06324958491928 -16.13122125900028 3 5 -6
982 1 5 0.1268 -5.347279966006965 -18.45350673069219 -13.65873086635565 3 5 -5
1343 1 3 -0.1268 -3.344088090556946 -10.941954391765098 -16.28736702833422 3 4 -5
1595 86 7 0.41 -6.9665566861832104 -15.20999277702043 -9.583460945380102 3 6 -5
1575 86 8 -0.82 -7.729916091687354 -15.88259953982283 -9.659168957330351 3 6 -5
2402 1 6 0.4241 -6.680599386063289 -14.199510029479518 -14.998789154189465 4 4 -6
1363 1 6 0.4241 -0.6593626768109271 -11.687708955893008 -12.624994183526429 3 4 -5
1346 1 9 -0.4506 -0.7238286801172169 -9.554046274412205 -10.864735987329606 3 4 -5
1345 1 9 -0.4506 -0.31426404456098567 -12.48265220782136 -12.951328118839719 3 4 -5
1353 1 5 0.1268 -0.4076349878478318 -14.758936800980038 -13.897423949035389 3 4 -5
3993 33 7 0.41 -5.328074371801323 -17.799437218067776 -9.546051224568597 4 6 -4
528 33 8 -0.82 -6.087803543905265 -18.343874600008583 -9.284900806290995 5 5 -5
476 29 8 -0.82 -5.992391275812977 -10.913110230731107 -9.79442890663477 5 5 -4
497 29 7 0.41 -5.504122642721562 -10.189675726703843 -10.245221952024622 5 5 -4
550 33 7 0.41 -6.581329146012756 -17.511635323531852 -8.926141219578117 5 5 -5
1364 1 6 0.4241 -1.0302669540114593 -9.948180276709335 -10.028364832913006 3 4 -5
2162 29 7 0.41 -6.837213238842619 -10.983361436510153 -10.223171004542035 4 5 -3
3597 56 8 -0.82 -5.865289098931022 -13.819805528689253 -9.09113249574029 4 5 -5
3619 56 7 0.41 -4.98444495174753 -14.03146185814111 -9.401757876351247 4 5 -5
1365 1 5 0.053 -5.316245416805785 -9.641548932651462 -14.746846214835308 3 4 -5
1338 1 3 0 -3.955577537030525 -9.69290584844743 -16.3114704249644 3 4 -5
1700 1 3 -0.1268 -3.569669409261209 -19.071613067145577 -16.06165668903925 3 5 -6
3717 105 7 0.41 -13.58176348581598 -9.35515835502444 -13.86981269332555 6 5 -8
1103 1 3 0 -16.21686308153836 -2.431967307829975 -10.997329112016434 4 4 -6
415 1 3 0 -10.041121574034506 -9.517089660667613 -12.288934355714492 2 4 -4
2164 105 7 0.41 -14.625266407546462 -8.4215963348193 -14.179183225551037 5 5 -7
2657 54 7 0.41 -9.327795189477676 -7.043543732277337 -9.390846192065599 2 5 -2
475 1 1 -0.106 -16.44129374954451 -5.139288357546018 -15.202179804996279 5 5 -6
1121 1 9 -0.4506 -15.895411649196598 -4.805890259528107 -11.04903885838527 4 4 -6
421 1 1 -0.106 -10.92323610952287 -9.497444168056994 -8.538112521034847 2 4 -4
1129 1 5 0.1268 -13.204242813406712 -1.1733934857399966 -16.022636841402775 4 4 -6
462 1 3 -0.1268 -15.71825269698088 -7.276649910244727 -16.32382698919197 5 5 -6
457 1 3 0 -15.788023258743138 -8.618684832448903 -16.61714619925008 5 5 -6
1108 1 3 -0.1268 -13.439157739077084 -1.2814631598262523 -14.995238756191217 4 4 -6
4107 1 5 0.053 -9.930249582392563 -9.308391774898343 -14.449336205335165 1 5 -3
1110 1 3 -0.1268 -13.82950483972593 -0.6037114504915806 -12.804427608842627 4 4 -6
3352 118 8 -0.82 -12.765809790279505 -5.631827296086758 -15.695786594702403 1 4 -5
416 1 3 -0.1268 -10.555529597758056 -9.224496854040485 -11.026503714302278 2 4 -4
2882 118 7 0.41 -13.65474598752331 -5.578046332189919 -15.315424955488659 0 6 -2
4108 1 5 0.053 -11.372138693167368 -8.825337414237639 -13.677540528488628 1 5 -3
3695 105 8 -0.82 -13.863875534487512 -8.428321003046985 -13.55532158703555 6 5 -8
895 1 5 0.053 -8.678083368444693 -0.8169306412064685 -13.879941718067272 2 5 -3
855 1 3 0 -11.975645108845548 -4.049093384444456 -9.093144347342099 2 5 -3
1138 1 6 0.4241 -14.434791591724657 -4.404940115549239 -12.205601052894492 4 4 -6
1120 1 9 -0.4506 -14.153410860644586 -4.255010500619026 -13.12507963617292 4 4 -6
4100 1 5 0.1268 -10.89833257129381 -4.1820300553352805 -12.885206100120971 1 5 -3
4103 1 6 0.4241 -12.228171426900428 -7.3810984003100355 -13.053750112556173 1 5 -3
4083 1 9 -0.4506 -12.018777670106001 -6.409571487119761 -12.8951255149474 1 5 -3
1107 1 3 -0.1268 -13.677847594552043 -2.59494741806526 -14.592736683085736 4 4 -6
1112 1 3 0.0265 -13.923991513004399 -2.9574285715380384 -13.27995427581467 4 4 -6
435 1 5 0.1268 -11.28629542183764 -8.371078157668107 -10.972453570163221 2 4 -4
4081 1 3 0.0265 -10.67901580288249 -6.222467734318357 -13.183982617833879 1 5 -3
873 1 1 -0.106 -11.688832934027023 -3.282084747448419 -10.39355801185403 2 5 -3
892 1 5 0.053 -12.36102574054329 -2.4457954908540778 -10.37685798106481 2 5 -3
893 1 5 0.053 -12.03012425611675 -3.8110429865796664 -11.275754778110798 2 5 -3
1111 1 3 0 -14.089406403917032 -1.9109754586631809 -12.336910347477682 4 4 -6
882 1 5 0.1268 -10.82191204791271 -1.7414566081101661 -12.406235723850461 2 5 -3
861 1 3 0 -8.848521449021359 -1.1434212813195685 -11.816102925796418 2 5 -3
862 1 3 -0.1268 -10.03034483157137 -1.8386137074077453 -11.63136582230884 2 5 -3
857 1 3 0 -10.247451219449463 -2.7565129791506315 -10.629148816631655 2 5 -3
1119 1 1 -0.106 -14.687603246459059 -2.1024314618480986 -10.99244806814184 4 4 -6
1137 1 5 0.053 -14.32780281548993 -2.970172417506781 -10.456002457305626 4 4 -6
880 1 5 0.1268 -13.536448271710615 -5.252915064985212 -9.964751588467958 2 5 -3
858 1 3 -0.1268 -9.171995218682781 -2.9707084819342917 -9.74792058009093 2 5 -3
4086 1 1 -0.106 -10.299992399842129 -8.733956604255335 -13.56131372875174 1 5 -3
4076 1 3 0 -9.871332649020156 -7.309095188628513 -13.543468795434208 1 5 -3
1136 1 5 0.053 -14.429561677019095 -1.1760344530577953 -10.494591406724027 4 4 -6
4080 1 3 0 -10.207220695760148 -4.910369887765798 -13.189799585325268 1 5 -3
1128 1 5 0.1268 -13.666112152025514 -3.315838001571924 -15.463950695266467 4 4 -6
950 55 7 0.41 -15.416436031777936 -8.017161426588473 -12.01177077951223 1 5 -3
856 1 3 -0.1268 -12.895268545971259 -5.059480078917252 -9.066737930605363 2 5 -3
881 1 5 0.1268 -9.331552754710302 -3.6351067332825124 -8.90754016127436 2 5 -3
926 54 8 -0.82 -8.829142201278456 -6.572987408425316 -10.094493247911117 2 5 -2
899 1 5 0.053 -14.781938524447945 -6.4638741209973904 -8.948717739690421 2 5 -3
947 54 7 0.41 -9.528119034536243 -5.985304732724133 -10.365820411946242 2 5 -2
496 1 5 0.053 -15.43781491684438 -4.685252891287849 -15.223890887956413 5 5 -6
3374 118 7 0.41 -12.217411801735793 -5.742953442709881 -14.872483345362808 1 4 -5
928 55 8 -0.82 -16.229712823821004 -7.719543211541707 -11.636802163291122 1 5 -3
440 1 5 0.053 -11.678164211220505 -8.701931746134528 -8.748199831112931 2 4 -4
2340 109 8 -0.82 -10.350393972921506 -4.589071246251734 -16.714368415956265 1 4 -4
2116 1 5 0.1268 -11.089181749772667 -0.32628512714194713 -13.855316370245035 1 5 -3
2219 1 5 0.053 -12.735333086598747 -0.0541731024389982 -8.983227307458641 2 5 -3
4079 1 3 -0.1268 -8.875025741791307 -4.683857066123963 -13.489992938474998 1 5 -3
4077 1 3 -0.1268 -8.597315517409964 -6.983452684604606 -13.951515436023149 1 5 -3
4091 109 7 0.41 -9.87041744320885 -5.126706138977935 -16.028943507131398 1 4 -4
4099 1 5 0.1268 -8.324173366381045 -3.7715532208129368 -13.202132989244959 1 5 -3
3648 1 5 0.1268 -15.972099319168075 -8.541056329075408 -8.568993894464628 2 6 -3
1109 1 3 0 -13.416855354791721 -0.2214849319909078 -14.07548487419851 4 4 -6
875 1 1 -0.106 -8.648257505244604 -0.20072948165313065 -12.971447949983482 2 5 -3
1139 1 6 0.4241 -16.322863509557813 -5.626005083678159 -11.207985425388518 4 4 -6
2360 109 7 0.41 -11.21923933884282 -5.055231413486313 -16.615855680414683 1 4 -4
2477 32 7 0.41 -0.6870268339216175 -0.2465750099810613 -9.145532549398697 5 5 -6
1327 1 3 0.0265 -1.7008525677798243 -9.46561966004097 -11.849825610372115 3 4 -5
3903 1 5 0.1268 -4.113198914335513 -0.1890470743200403 -8.584498749372711 6 5 -6
1366 1 5 0.053 -4.82050591679838 -8.022951992267908 -15.17910265605648 3 4 -5
547 32 7 0.41 -0.6573801741201972 -0.781479133169313 -10.59493644346039 5 5 -6
2628 1 5 0.053 -0.6083684336991197 -3.211009005691901 -11.785192152644399 3 5 -5
4054 1 6 0.4241 -5.329163665271391 -7.839486226376593 -9.503899550780691 1 5 -3
859 1 3 0 -7.939273880595595 -2.335374531696452 -9.899880191093462 2 5 -3
34 4 7 0.41 -7.753900756743535 -8.982478311516866 -11.019637088675267 3 5 -4
2359 1 5 0.053 -4.151755100563527 -2.6480408898018517 -10.448717068474913 1 5 -3
2625 1 6 0.4241 -1.8614944859229823 -3.4876354510854917 -15.735914803760132 3 5 -5
4034 1 9 -0.4506 -4.4501145488867255 -7.891515534602734 -9.180564090767728 1 5 -3
2042 1 6 0.4241 -1.4007902824801644 -7.973655311955444 -16.674483024563504 3 5 -5
4097 1 6 0.4241 -6.777186277708305 -2.9247043273208817 -16.321885096604948 1 5 -3
1347 1 1 -0.106 -4.419059558025237 -9.071223803926847 -15.069205970054131 3 4 -5
578 4 8 -0.82 -6.975560490937275 -8.397390874532636 -10.964246335504189 3 5 -5
890 1 5 0.053 -5.977711084300964 -2.6880889255461646 -9.194686958060016 2 5 -3
1330 1 3 0 -3.4257268752599632 -9.123037986165821 -13.904980168131761 3 4 -5
2358 1 5 0.053 -4.790171679427564 -4.211489356386153 -10.465359466334231 1 5 -3
1352 1 5 0.1268 -2.691051167723476 -7.062751066328602 -14.026532331758004 3 4 -5
526 32 8 -0.82 -1.2964985183265973 -0.5955116618005647 -9.857594228062174 5 5 -6
2320 1 3 0 -0.8239857454908499 -4.887121020243457 -9.158791818710977 1 5 -3
4067 1 3 0 -4.40704398075985 -3.4737963280259407 -12.370418627557857 1 5 -3
2606 1 9 -0.4506 -1.389955325564543 -2.7609083593522783 -15.294069381455998 3 5 -5
2336 1 9 -0.4506 -2.33630845004293 -3.019365380317616 -8.697234265384877 1 5 -3
4082 1 1 -0.106 -6.643402921287002 -5.604496814782285 -14.56557415249706 1 5 -3
1326 1 3 0 -1.723380846798083 -8.218915031325134 -12.558773655928889 3 4 -5
2355 1 6 0.4241 -2.2789946382233275 -2.1951603272279243 -9.276743922671775 1 5 -3
4094 1 5 0.053 -3.4492990200369977 -1.7015765374611966 -16.019706681136057 1 5 -3
2343 1 5 0.1268 -2.70884448723611 -5.406755333825048 -12.467507706177198 1 5 -3
4102 1 5 0.053 -6.079101201985674 -6.488322509167908 -14.236191281603572 1 5 -3
4093 1 5 0.1268 -5.441179051494068 -5.445808701064095 -12.205439471486141 1 5 -3
2319 1 3 -0.1268 -0.46981176079434306 -5.9188903011555265 -10.104689565871944 1 5 -3
2339 1 1 -0.106 -3.947404240434052 -3.6447014877055306 -10.938636563524774 1 5 -3
4069 1 3 0 -4.677935595255043 -2.294073689440573 -14.459996532820453 1 5 -3
4070 1 3 0.0265 -5.488238071313793 -3.356760206803875 -14.947910922596288 1 5 -3
2318 1 3 0 -1.0958976850279374 -6.058624638312173 -11.322600485770597 1 5 -3
2317 1 3 -0.1268 -2.172919104049818 -5.255929146251928 -11.550183673075578 1 5 -3
860 1 3 0.0265 -7.7562563569672935 -1.4379292941502904 -10.976730217230529 2 5 -3
4092 1 5 0.1268 -3.449753867882748 -1.585058078569162 -12.776336523773395 1 5 -3
4073 1 1 -0.106 -4.32266173270385 -1.225158921681217 -15.471262171881245 1 5 -3
4088 1 5 0.1268 -1.705893017925014 -0.4701027591440976 -15.695903495214859 1 5 -3
4071 1 3 0 -5.747449884991299 -4.477302653729684 -14.109532964248405 1 5 -3
2321 1 3 0.0265 -1.9100332149633523 -4.039916929146095 -9.516310597264006 1 5 -3
4072 1 3 -0.1268 -5.242308181929019 -4.508474834842554 -12.7938351768303 1 5 -3
2629 1 5 0.053 -1.299802884226386 -2.0706238143336577 -12.86261600751796 3 5 -5
4101 1 5 0.053 -6.551219273923541 -5.572482037398714 -15.667938167373435 1 5 -3
2316 1 3 0 -2.6321342738077647 -4.328983401308244 -10.657743170198636 1 5 -3
1349 1 1 -0.106 -0.6841459778651746 -7.09168535465796 -12.305583496473604 3 4 -5
1331 1 3 -0.1268 -2.6420891926623646 -8.072424538723382 -13.550134213797165 3 4 -5
4068 1 3 -0.1268 -4.171443107451118 -2.358390597985885 -13.16963022064579 1 5 -3
1368 1 5 0.053 -0.3319850877072028 -6.678798105248509 -13.218997486712375 3 4 -5
871 1 1 -0.106 -6.952912989884261 -2.3940830158223108 -8.70401165782244 2 5 -3
4078 1 3 0 -8.068828335839065 -5.707653445514186 -14.05110331362593 1 5 -3
4098 1 5 0.1268 -8.056506208884665 -7.880605051810576 -14.26115169259712 1 5 -3
872 1 9 -0.4506 -6.518151641903996 -0.8437727163228388 -11.129032127290113 2 5 -3
4095 1 5 0.053 -5.202515383824439 -1.1216759447841618 -16.18597004192836 1 5 -3
600 4 7 0.41 -7.4276880629809146 -7.510156926474606 -10.8681538154255 3 5 -5
4075 1 9 -0.4506 -5.925737927038412 -3.3619217080573645 -16.255028402311602 1 5 -3
2609 1 1 -0.106 -0.32086653421394473 -2.44791663256704 -12.545170559275611 3 5 -5
2041 1 5 0.053 -0.24000039679983942 -9.117349302101006 -14.911506245148411 3 5 -5
2591 1 3 0.0265 -0.14276544701161598 -3.3039726235558504 -15.023533274668306 3 5 -5
2837 15 7 0.41 -3.805366889390717 -3.6035330718394984 -16.5234221609435 4 4 -3
891 1 6 0.4241 -6.692820084028231 -0.008931368996350386 -11.541123538202678 2 5 -3
228 15 8 -0.82 -3.1822918280025956 -4.286577801775044 -16.7928471236133 4 4 -3
885 1 5 0.1268 -6.0812207421119915 -4.8034227540366246 -8.578628325042143 2 5 -3
411 1 3 0 -12.55785860483487 -11.727139835522372 -5.860931115190901 2 4 -4
3626 1 3 0 -14.288514842661451 -12.573461263239366 -4.489426602290189 2 6 -3
3627 1 3 -0.1268 -15.299819952971308 -12.214643559643154 -5.328213633537562 2 6 -3
412 1 3 -0.1268 -12.59831397962162 -12.99403564862028 -6.537296286424144 2 4 -4
445 1 5 0.053 -13.37255054522382 -10.647984638604617 -4.047623690324283 2 4 -4
3652 1 5 0.1268 -15.23204316689038 -11.268197315879389 -5.911732328554846 2 6 -3
425 1 1 -0.106 -13.104955298201745 -11.643079598829914 -4.389386910888279 2 4 -4
3293 1 3 -0.1268 -10.261994812040097 -13.963548420088122 -4.389484614429115 3 4 -6
3631 1 3 -0.1268 -14.27211702467466 -13.80551236684186 -3.9555626995218134 2 6 -3
446 1 5 0.053 -12.412214827664535 -12.005534477761177 -3.6280856483536947 2 4 -4
3630 1 3 0 -15.29005659481979 -14.781008437918988 -4.166567895427166 2 6 -3
3292 1 3 0 -10.46474641290689 -15.281152359762537 -4.571718240615464 3 4 -6
3314 1 5 0.1268 -10.613848117665144 -13.535600620882228 -3.4493822045334905 3 4 -6
3651 1 5 0.1268 -13.459591857857752 -14.023687723027482 -3.2447450589533453 2 6 -3
3297 1 3 0.0265 -9.843334819416992 -15.985813566926373 -5.589639662332823 3 4 -6
3302 1 1 -0.106 -11.237277179270507 -15.974213641456883 -3.475193703410641 3 4 -6
3324 1 5 0.053 -12.100089135146623 -15.452280150171232 -3.1998788394712196 3 4 -6
1559 1 3 0 -10.378288103886565 -16.245080293066685 -2.3167971035467314 2 6 -3
3323 1 5 0.053 -11.643556062440094 -16.874928498435803 -3.8927630608126176 3 4 -6
432 1 5 0.1268 -12.962788832377115 -13.956619298077815 -6.071960789572284 2 4 -4
3661 1 5 0.053 -14.317968160980133 -16.554798211478897 -3.841820920999627 2 6 -3
3641 1 1 -0.106 -15.249409782573126 -16.11259628447143 -3.4615882409929917 2 6 -3
3637 1 3 0 -15.15164156284476 -16.109469047374564 -1.9530811567845028 2 6 -3
3317 1 5 0.053 -9.607363330145962 -11.43936342098771 -4.151511169488774 3 4 -6
1558 1 3 -0.1268 -9.876593565458597 -17.512394223649547 -2.1701056477858636 2 6 -3
3299 1 9 -0.4506 -10.087879043099875 -17.331242107198335 -5.7997892958431105 3 4 -6
3319 1 6 0.4241 -10.983817268114752 -17.527596172251766 -6.0192487335319065 3 4 -6
1581 1 5 0.1268 -10.483462120023969 -14.281768443478088 -1.474299210185615 2 6 -3
3658 1 5 0.1268 -13.228087848079124 -16.80473757005504 -1.9067366036229991 2 6 -3
1560 1 3 -0.1268 -10.115660257584963 -15.314098987076413 -1.3473756455772978 2 6 -3
3294 1 3 0 -9.483186103386899 -13.241937399497289 -5.281331343558518 3 4 -6
409 1 3 -0.1268 -11.633415882194274 -10.726903631277034 -7.803822434607774 2 4 -4
410 1 3 0.0265 -12.131637526471346 -10.588457691663281 -6.5044648688565 2 4 -4
3952 1 5 0.1268 -14.738675682976291 -10.260467234629093 -2.4530083743339635 2 5 -2
1557 1 3 -0.1268 -9.207316469057176 -17.907968295382798 -1.0324879240085778 2 6 -3
1579 1 5 0.1268 -10.102551593152487 -18.318344951120505 -2.817881620081158 2 6 -3
3318 1 5 0.053 -9.294946105794857 -11.168625655189452 -5.835793853570461 3 4 -6
407 1 3 0 -12.222904083566673 -13.066825474926922 -7.898914464631549 2 4 -4
3296 1 3 0 -9.075576418873645 -15.303504327941983 -6.570805185117367 3 4 -6
3638 1 3 -0.1268 -14.00295765342808 -16.395687033465972 -1.2952086928901494 2 6 -3
3895 46 7 0.41 -13.577061791121803 -17.717080212069867 -6.290620236715087 7 6 -8
778 46 8 -0.82 -12.68103287394537 -18.015850434804374 -6.433156971155126 2 6 -5
3298 1 1 -0.106 -9.030064957887442 -11.823499463226838 -4.99828270248554 3 4 -6
800 46 7 0.41 -12.86288370364303 -18.607534810952746 -7.152349689719731 2 6 -5
442 1 5 0.053 -12.184617695961387 -15.211165672079446 -8.328093037809467 2 4 -4
3668 19 7 0.41 -15.738974383023976 -12.426366398249936 -1.6993908690454447 3 6 -3
436 1 6 0.4241 -9.219167894566233 -11.190288443308088 -8.085525007367654 2 4 -4
1076 44 8 -0.82 -15.296679024815552 -16.762042076477403 -6.961751256043419 1 5 -2
1561 1 3 0 -9.449052124535172 -15.644545833460437 -0.1767627659503539 2 6 -3
3295 1 3 -0.1268 -8.881646856863469 -13.928944797675468 -6.323984569444217 3 4 -6