thermo_style   custom step pe ke temp etotal evdwl press pxx pyy pzz v_etrue v_eengx v_eengy v_eengz v_sxx v_syy v_szz f_sxx_ave f_syy_ave                f_szz_ave v_etruex v_etruey v_etruez lx ly lz v_dir vol density ebond eangle edihed eimp bonds angles dihedrals impropers
restart        100000 rst1.a.${myid} rst2.a.${myid}
restart        100000 rst1.a.tensile_TP_4k_H2O_bonded_rlxed_erate_2e8_r3 rst2.a.${myid}
restart        100000 rst1.a.tensile_TP_4k_H2O_bonded_rlxed_erate_2e8_r3 rst2.a.tensile_TP_4k_H2O_bonded_rlxed_erate_2e8_r3
dump           6 all atom 10000 dump.${myid} #every picosecond
dump           6 all atom 10000 dump.tensile_TP_4k_H2O_bonded_rlxed_erate_2e8_r3 
dump_modify    6 scale no sort id

#-------------------Run-------------------
timestep       ${mytimestep}
timestep       0.1
run            ${steps}
run            5000000
PPPM initialization ...
WARNING: System is not charge neutral, net charge = -0.8876 (../kspace.cpp:327)
  using 12-bit tables for long-range coulomb (../kspace.cpp:342)
  G vector (1/distance) = 0.18989302
  grid = 10 10 10
  stencil order = 5
  estimated absolute RMS force accuracy = 0.029573937
  estimated relative force accuracy = 8.9061033e-05
  using double precision KISS FFT
  3d grid and FFT values/proc = 800 90
Generated 36 of 36 mixed pair_coeff terms from sixthpower/sixthpower mixing rule
Neighbor list info ...
  update: every = 1 steps, delay = 0 steps, check = yes
  max neighbors/atom: 5000, page size: 100000
  master list distance cutoff = 14
  ghost atom cutoff = 14
  binsize = 7, bins = 5 5 5
  1 neighbor lists, perpetual/occasional/extra = 1 0 0
  (1) pair lj/class2/coul/long, perpetual
      attributes: half, newton on
      pair build: half/bin/newton
      stencil: half/bin/3d
      bin: standard
WARNING: Inconsistent image flags (../domain.cpp:815)
Per MPI rank memory allocation (min/avg/max) = 14.85 | 14.85 | 14.86 Mbytes
   Step         PotEng         KinEng          Temp          TotEng         E_vdwl         Press           Pxx            Pyy            Pzz          v_etrue        v_eengx        v_eengy        v_eengz         v_sxx          v_syy          v_szz        f_sxx_ave      f_syy_ave      f_szz_ave       v_etruex       v_etruey       v_etruez          Lx             Ly             Lz           v_dir          Volume        Density         E_bond        E_angle        E_dihed        E_impro        Bonds      Angles      Diheds      Impros   
         0  -2529.9635      3692.5858      298            1162.6223     -161.69264     -280.24263     -494.52486      756.51759     -1102.7206      0              1.2282789e-15  1.2282789e-15  1.2282789e-15  50.107732     -76.654144      111.73317      0              0              0              1.3322676e-15  1.3322676e-15  1.3322676e-15  34.70919       34.70919       34.70919       2              41815.127      1.2385137      2053.6063      1736.4312     -2153.1158      152.75632           4356        7128       10809        2904 
      2000  -2627.1505      3649.4706      294.52051      1022.3201     -204.26166     -2297.4738     -2226.1253     -597.33907     -4068.9569      3.99992e-05   -0.00082033403  4e-05         -0.0007336699   225.55887      60.522142      412.28394      48.946392      26.323892      8.773331      -0.00082067069  3.99992e-05   -0.00073393917  34.680716      34.710578      34.683725      2              41751.841      1.240391       1969.819       1693.4542     -2079.5548      148.27333           4356        7128       10809        2904 
      4000  -2652.238       3706.0655      299.08785      1053.8275     -136.71183      1302.3569      2074.2585      68.405607      1764.4066      7.99968e-05   -0.006030159    8e-05         -0.0006970867  -210.17266     -6.9296755     -178.77693     -4.491103       38.966131     -33.676652     -0.0060484138   7.99968e-05   -0.00069732978  34.499888      34.711966      34.684994      2              41537.325      1.2467969      1950.1375      1734.4075     -2168.3305      148.92151           4356        7128       10809        2904 
      6000  -2569.8318      3676.2429      296.68109      1106.4111     -209.32636     -603.2839      -3014.9225      2172.3762     -967.30541      0.0001199928  -0.011337783    0.00012        0.0020818591   305.49024     -220.1126       98.015527      8.1879478     -37.768222     -14.841813     -0.011402546    0.0001199928   0.0020796951   34.315664      34.713355      34.781449      2              41432.074      1.2499642      2015.6564      1708.7357     -2109.3286      156.30286           4356        7128       10809        2904 
      8000  -2453.1827      3718.8239      300.11747      1265.6411     -180.05197     -923.9516       546.71104     -1729.3134     -1589.2525      0.0001599872  -0.015013626    0.00016        0.0064491115  -55.396352      175.22183      161.03015     -46.593126      7.4607797     -25.488381     -0.015127472    0.0001599872   0.0064284049   34.188079      34.714743      34.933033      2              41459.585      1.2491348      2049.7067      1718.8597     -2075.1309      157.13588           4356        7128       10809        2904 
     10000  -2600.0891      3670.378       296.20779      1070.2889     -156.36929      1860.9988      1691.8032      1972.5915      1918.6018      0.00019998    -0.013165913    0.0002         0.0080333813  -171.42209     -199.87296     -194.40245     -48.852351     -47.206484      51.305005     -0.013253352    0.00019998     0.0080012854   34.252211      34.716131      34.988022      2              41604.406      1.2447866      2009.8494      1706.1151     -2138.0722      155.30601           4356        7128       10809        2904 
     12000  -2604.0038      3701.1173      298.68851      1097.1135     -243.46266     -1154.9245      28.194215     -1261.8429     -2231.1249      0.0002399712  -0.0094367756   0.00024        0.0069152634  -2.8548642      127.85811      226.07052      11.822364      13.911811      57.885693     -0.0094815841   0.0002399712   0.0068914626   34.381647      34.71752       34.949213      2              41716.971      1.2414278      2034.6513      1718.0187     -2161.4715      152.97009           4356        7128       10809        2904 
     14000  -2579.8641      3724.3296      300.5618       1144.4654     -113.47571      761.50838      2114.3437      18.367826      151.81358      0.00027996081 -0.0084145847   0.00028        0.0037524095  -214.23632     -1.8615562     -15.382936     -3.88282        0.90074186    -38.769435     -0.0084501872   0.00027996081  0.0037453868   34.417126      34.718908      34.839433      2              41630.511      1.2440061      2025.4299      1741.2892     -2140.7434      150.07977           4356        7128       10809        2904 
     16000  -2633.1152      3641.544       293.88082      1008.4288     -140.30107      573.48664      631.9933      -642.02534      1730.492       0.00031994881 -0.006413883    0.00032        0.0019463539  -64.040146      65.0498       -175.34554      5.0574503      21.291372      25.102645     -0.0064345403   0.00031994881  0.0019444622   34.486569      34.720297      34.776746      2              41641.116      1.2436893      1996.2946      1709.9705     -2132.1743      151.34519           4356        7128       10809        2904 
     18000  -2620.5018      3707.7345      299.22253      1087.2326     -122.24804     -1077.8378     -2182.1283     -341.69204     -709.69317      0.00035993522 -0.0057318412   0.00036        0.0013888943   221.10951      34.627094      71.914634      30.165165     -12.932583     -31.59973      -0.0057483312   0.00035993522  0.0013879307   34.510242      34.721685      34.757397      2              41648.181      1.2434783      2011.2837      1730.9336     -2145.0199      148.18774           4356        7128       10809        2904 
     20000  -2569.5494      3670.5478      296.22149      1100.9984     -146.05731     -350.42309      128.488        43.568649     -1223.3259      0.00039992002 -0.0099436146   0.0004         0.0026724481  -13.02095      -4.4165428      123.9516       33.394316      26.044553     -24.882397     -0.0099933826   0.00039992002  0.0026688835   34.364055      34.723073      34.801948      2              41526.575      1.2471197      2053.236       1687.0858     -2108.7548      151.80425           4356        7128       10809        2904 
     22000  -2576.9072      3627.4144      292.74052      1050.5071     -179.13061      113.63568      343.56377      612.24747     -614.90418      0.00043990323 -0.014641885    0.00044        0.0053298873  -34.812494     -62.036888      62.304316      31.886717      17.029636      37.239101     -0.014750135    0.00043990323  0.0053157337   34.200982      34.724462      34.894186      2              41440.707      1.2497038      2085.3805      1682.586      -2156.2612      151.60604           4356        7128       10809        2904 
     24000  -2705.9372      3709.4247      299.35894      1003.4876     -160.82232      1056.5094     -1.7550445      1736.2595      1435.0238      0.00047988484 -0.016719073    0.00048        0.0065216575   0.17890227    -175.92539     -145.40273     -42.113643     -51.050791     -33.044204     -0.016860414    0.00047988484  0.0065004835   34.128884      34.72585       34.935551      2              41404.026      1.2508109      2039.388       1618.5989     -2188.5078      147.09705           4356        7128       10809        2904 
     26000  -2593.6232      3744.4706      302.18723      1150.8474     -165.86141     -1675.1649     -2429.2184     -2321.0019     -275.27447      0.00051986485 -0.014065414    0.00052        0.0073712159   246.14259      235.1776       27.894298     -60.510482      26.384466      5.8645574     -0.014165269    0.00051986485  0.0073441813   34.22099       34.727238      34.965039      2              41552.469      1.2463425      2044.5599      1656.5708     -2093.7623      155.49657           4356        7128       10809        2904 
     28000  -2600.2358      3674.7437      296.56011      1074.5079     -182.64461     -295.21873     -511.09078      471.18784     -845.75325      0.00055984326 -0.010764423    0.00056        0.010282319    51.780487     -47.748825      85.690469      35.240047     -8.70085       -2.655147      -0.010822779    0.00055984326  0.010229816    34.335565      34.728627      35.066081      2              41813.742      1.2385547      2073.6577      1701.103      -2187.3012      148.16595           4356        7128       10809        2904 
     30000  -2601.682       3596.0582      290.21001      994.37624     -137.47783      997.32498      601.1021      -43.511755      2434.3846      0.00059982007 -0.011628864    0.0006         0.0073688745  -60.90097       4.4145871     -246.65827      11.430673      7.3386869      7.1100751     -0.011697008    0.00059982007  0.007341857    34.305561      34.730015      34.964957      2              41658.392      1.2431735      2030.5215      1728.3155     -2166.0544      160.76736           4356        7128       10809        2904 
     32000  -2595.3129      3767.712       304.06286      1172.3991     -129.4113       1535.2345      1952.7657      1842.9814      809.95648      0.00063979529 -0.01188453     0.00064        0.0066210192  -197.86422     -186.74032     -82.069069     -12.713402      71.904728     -8.7314513     -0.011955715    0.00063979529  0.0065991965   34.296687      34.731403      34.939         2              41618.361      1.2443693      2072.681       1706.5755     -2181.7709      150.59783           4356        7128       10809        2904 
     34000  -2626.2064      3666.5305      295.89728      1040.3241     -182.17941     -202.42792      467.05944      313.74647     -1388.0897      0.0006797689  -0.0095262864   0.00068        0.0088565466  -47.327552     -31.793197      140.64549     -35.386262     -8.2374004     -39.989473     -0.0095719517   0.0006797689   0.0088175574   34.37854       34.732792      35.016593      2              41812.007      1.2386062      2078.4667      1666.7308     -2162.4452      147.03153           4356        7128       10809        2904 
     36000  -2629.7468      3726.1994      300.7127       1096.4526     -212.54163     -1515.6876     -2770.0167     -920.05063     -856.99554      0.00071974092 -0.0056891296   0.00072        0.0099127638   280.67977      93.231745      86.842777      39.475168      40.256882      68.505169     -0.0057053743   0.00071974092  0.0098639547   34.511725      34.73418       35.053254      2              42019.613      1.2324866      1981.8189      1729.1945     -2137.3853      155.06175           4356        7128       10809        2904 
     38000  -2600.1189      3783.4357      305.3318       1183.3168     -128.82196      1273.838       166.0968       2074.9931      1580.424       0.00075971135 -0.0088322004   0.00076        0.0079508763  -16.833519     -210.25245     -160.1402       29.354526     -19.226991     -30.939542     -0.0088714355   0.00075971135  0.0079194346   34.402631      34.735569      34.985158      2              41807.087      1.2387519      2017.4613      1708.9187     -2182.661       158.03184           4356        7128       10809        2904 
     40000  -2597.2962      3664.7982      295.75748      1067.502      -150.62713     -1056.7597      382.91959     -2457.392      -1095.8067      0.00079968017 -0.014296243    0.0008         0.0064868074  -38.80047       248.9941       111.03149      30.977106     -0.31634689     34.469836     -0.014399419    0.00079968017  0.0064658586   34.212979      34.736957      34.934341      2              41517.885      1.2473807      2034.4589      1670.2952     -2102.904       159.11706           4356        7128       10809        2904 
     42000  -2638.363       3669.8215      296.16288      1031.4586     -127.29465      655.19873      1106.2391      1695.1392     -835.78204      0.0008396474  -0.015623708    0.00084        0.0082481258  -112.09275     -171.76287      84.682702     -86.633266     -57.918749     -80.928704     -0.015747044    0.0008396474   0.0082142959   34.166903      34.738345      34.995475      2              41536.189      1.246831       2035.8917      1698.4019     -2171.89        150.10498           4356        7128       10809        2904 
     44000  -2689.6057      3655.1542      294.97919      965.54844     -184.38605      390.59273      1497.5282     -370.1377       44.387737      0.00087961303 -0.013417605    0.00088        0.011121101   -151.73297      37.508188     -4.4936061      14.837701      53.946594      29.218831     -0.013508435    0.00087961303  0.011059716    34.243475      34.739734      35.095194      2              41749.566      1.2404586      1989.3639      1652.5912     -2148.6482      145.54607           4356        7128       10809        2904 
     46000  -2533.1927      3669.2669      296.11811      1136.0742     -86.057605     -1006.2623     -3177.4993     -334.90077      493.61332      0.00091957706 -0.010712644    0.00092        0.012885279    321.96181      33.93544      -50.013766     -28.717827     -37.331248      26.82466      -0.010770438    0.00091957706  0.01280297     34.337362      34.741122      35.156427      2              41938.752      1.2348629      2038.8956      1678.6435     -2121.4683      151.81494           4356        7128       10809        2904 
     48000  -2521.429       3635.1353      293.36362      1113.7063     -182.1965      -1340.6017     -2015.8457     -1204.6605     -801.29896      0.00095953949 -0.0089752554   0.00096        0.011291355    204.25         122.0569       81.186234      37.439624      17.716172      34.790344     -0.0090157756   0.00095953949  0.011228084    34.397666      34.74251       35.101103      2              41947.969      1.2345916      2063.5146      1723.4083     -2115.6552      156.17179           4356        7128       10809        2904 
     50000  -2641.2496      3627.9204      292.78136      986.67083     -114.66145      2746.0292      3068.0148      1640.4948      3529.578       0.00099950033 -0.010034855    0.001          0.0048838188  -310.86496     -166.22154     -357.63289      0.86162063     17.435608      15.64382      -0.010085544    0.00099950033  0.0048719316   34.360888      34.743899      34.878703      2              41639.284      1.243744       1989.3697      1676.0934     -2172.1314      150.11431           4356        7128       10809        2904 
     52000  -2599.6704      3676.8897      296.73329      1077.2192     -138.53831      2107.0125      2591.8769      1545.7079      2183.4526      0.0010394596  -0.010335489    0.00104        0.00067748678 -262.62063     -156.61754     -221.23701      5.3288924     -39.486862     -24.990618     -0.010389271    0.0010394596   0.00067725739  34.350453      34.745287      34.732705      2              41454.051      1.2493015      2027.5304      1723.4262     -2161.2859      149.85443           4356        7128       10809        2904 
     54000  -2566.4626      3647.9662      294.3991       1081.5036     -123.23085      2042.9034      3542.78        673.65894      1912.2713      0.0010794172  -0.010151024    0.00108        0.0020864558  -358.9728      -68.259115     -193.76154     -14.863204     -37.822131     -73.553665     -0.010202897    0.0010794172   0.0020842822   34.356856      34.746676      34.781609      2              41521.816      1.2472626      2094.2752      1705.4398     -2162.4108      149.03417           4356        7128       10809        2904 
     56000  -2586.1282      3718.9161      300.12492      1132.788      -189.20173     -920.14939     -86.811814     -2153.7221     -519.91428      0.0011193733  -0.0084764121   0.00112        0.0068045494   8.8011197      218.23052      52.685196     -5.0886431      6.572118      -8.593853      -0.0085125412   0.0011193733   0.0067815029   34.41498       34.748064      34.94537       2              41789.558      1.2392715      1962.7533      1712.7734     -2089.9579      144.78463           4356        7128       10809        2904 
     58000  -2506.4626      3690.3429      297.81899      1183.8802     -146.15235     -1281.8768     -2444.3252      180.20697     -1581.5121      0.0011593277  -0.0081058642   0.00116        0.010156685    247.66779     -18.26288       160.24328      7.3931499      14.808272      7.5178982     -0.0081388953   0.0011593277   0.010105453    34.427842      34.749452      35.06172       2              41946.041      1.2346483      2019.1363      1745.0757     -2110.6791      146.72336           4356        7128       10809        2904 
     60000  -2660.8191      3700.039       298.60149      1039.2199     -213.71016     -3042.3061     -6949.8337     -1236.9661     -940.11854      0.0011992806  -0.009905628    0.0012         0.0098534658   704.19259      125.3363       95.258211      40.728685     -3.9817464      61.119981     -0.0099550152   0.0011992806   0.009805237    34.365373      34.750841      35.051195      2              41859.035      1.2372146      2021.773       1692.9003     -2125.5751      146.35713           4356        7128       10809        2904 
     62000  -2642.2587      3756.0831      303.12438      1113.8244     -185.18092      118.56849      355.73784      42.155202     -42.187588      0.0012392318  -0.014622419    0.00124        0.0060387197  -36.043678     -4.2699309      4.2761691      31.968869      51.905037      13.175762     -0.014730381    0.0012392318   0.0060205597   34.201657      34.752229      34.918789      2              41503.907      1.2478008      2030.1913      1709.5209     -2178.8634      143.00288           4356        7128       10809        2904 
     64000  -2582.8071      3698.5198      298.47889      1115.7128     -157.55564      1080.1644      1191.038       702.31994      1347.1352      0.0012791815  -0.016972777    0.00128        0.007498872   -120.68308     -71.163746     -136.49964     -5.6527439     -35.920285     -67.610135     -0.017118466    0.0012791815   0.0074708952   34.120078      34.753617      34.969469      2              41466.662      1.2489216      2065.3867      1709.8843     -2162.9074      152.11843           4356        7128       10809        2904 
     66000  -2576.3426      3679.3753      296.93388      1103.0327     -168.09228      872.90845      2231.0962     -1200.128       1587.7571      0.0013191296  -0.017113219    0.00132        0.010456193   -226.06569      121.60311     -160.87936     -38.399276     -45.37851      -26.999937     -0.017261342    0.0013191296   0.010401905    34.115204      34.755006      35.072116      2              41584.099      1.2453945      1982.0997      1694.7755     -2078.8999      163.36097           4356        7128       10809        2904 
     68000  -2593.5908      3662.7073      295.58874      1069.1165     -143.17713      226.5995       96.137075     -805.22019      1388.8816      0.001359076   -0.01571959     0.00136        0.012052232   -9.7439097      81.586098     -140.73123     -13.39321      -76.918269      27.555548     -0.015844453    0.001359076    0.011980182    34.163575      34.756394      35.127513      2              41710.503      1.2416203      1938.0066      1685.2899     -2059.6353      159.67346           4356        7128       10809        2904 
     70000  -2625.4645      3651.2135      294.66116      1025.749      -184.71058     -2666.8397     -2635.391      -3357.1671     -2007.961       0.0013990209  -0.016320835    0.0014         0.0097896332   267.03569      340.16954      203.46095      29.382709      3.4440412      31.411328     -0.016455487    0.0013990209   0.0097420252   34.142707      34.757782      35.04898       2              41593.493      1.2451133      2008.0865      1661.9043     -2068.2337      156.62932           4356        7128       10809        2904 
     72000  -2582.1681      3742.9575      302.06511      1160.7894     -142.5309      -1570.5636     -1992.5293     -327.65299     -2391.5086      0.0014389642  -0.015412148    0.00144        0.0087754069   201.89276      33.199165      242.31934     -36.196082      15.377478      15.711396     -0.01553215     0.0014389642   0.0087371268   34.174246      34.759171      35.013777      2              41591.762      1.2451651      2027.3034      1690.6547     -2089.4387      158.1734            4356        7128       10809        2904 
     74000  -2616.9564      3664.2574      295.71384      1047.301      -110.29607     -1125.2701     -2706.5798      1582.7114     -2251.9419      0.0014789059  -0.013892892    0.00148        0.0092555825   274.24073     -160.37155      228.17474      15.592555     -6.196817      -58.761457     -0.013990302    0.0014789059   0.0092130121   34.226979      34.760559      35.030443      2              41677.432      1.2426056      1982.9098      1637.5528     -2066.6336      144.16081           4356        7128       10809        2904 
     76000  -2627.0199      3768.7081      304.14324      1141.6882     -101.90676      1351.0159      1282.4115      1204.3773      1566.259       0.001518846   -0.013839865    0.00152        0.012475375   -129.93192     -122.02571     -158.69323      10.275676     -31.315651      17.497563     -0.013936528    0.001518846    0.012398198    34.228819      34.761948      35.1422        2              41814.312      1.2385379      2028.3125      1675.1687     -2173.2819      149.2064            4356        7128       10809        2904 
     78000  -2531.2152      3692.5936      298.00064      1161.3784     -120.50024      710.41274     -1059.1796      1283.5076      1906.9102      0.0015587845  -0.012896332    0.00156        0.013561482    107.31557     -130.05708     -193.22333     -7.834653       14.635632     -17.943342     -0.012980212    0.0015587845   0.013470348    34.261568      34.763336      35.179898      2              41900.891      1.2359787      2068.1697      1722.7025     -2157.1077      153.80324           4356        7128       10809        2904 
     80000  -2664.1074      3703.9298      298.91549      1039.8225     -116.15825      254.98356     -149.51964      942.68959     -28.219276      0.0015987214  -0.014272225    0.0016         0.015681304    15.150244     -95.517861      2.8594821      19.567558      13.915324      1.8579038     -0.014375053    0.0015987214   0.015559623    34.213812      34.764724      35.253475      2              41931.673      1.2350714      2031.426       1669.6166     -2178.0093      146.22492           4356        7128       10809        2904 
     82000  -2593.7405      3781.0456      305.13891      1187.305      -135.50671     -473.74698     -2670.8905      2840.9376     -1591.288       0.0016386567  -0.015690332    0.00164        0.019226156    270.63316     -287.85296      161.24237      20.336948      4.9039601     -2.6321014     -0.015814729    0.0016386567   0.019043669    34.164591      34.766113      35.376514      2              42019.162      1.2324998      2038.5278      1647.6942     -2101.6434      156.27343           4356        7128       10809        2904 
     84000  -2606.7039      3777.0203      304.81406      1170.3164     -135.00155      1946.1938      2296.8349      2523.7151      1018.0314      0.0016785904  -0.020591087    0.00168        0.020935353   -232.72895     -255.71752     -103.15413     -4.2997045      19.874564      44.116398     -0.020806039    0.0016785904   0.02071922     33.99449       34.767501      35.435839      2              41881.74       1.2365439      1987.2666      1797.2419     -2213.0942      147.90063           4356        7128       10809        2904 
     86000  -2591.1986      3673.6632      296.4729       1082.4646     -117.10508     -1178.4531      714.34389     -2829.435      -1420.2683      0.0017185225  -0.025292854    0.00172        0.017328904   -72.383754      286.6897       143.90591      1.6998547     -4.1329754      37.779852     -0.025618217    0.0017185225   0.017180471    33.831295      34.768889      35.310662      2              41535.104      1.2468636      2013.302       1749.6754     -2157.5248      137.89974           4356        7128       10809        2904 
     88000  -2605.7595      3644.5932      294.12689      1038.8337     -181.07556     -302.3341      -91.868664     -1667.7607      852.62705      0.001758453   -0.026355426    0.00176        0.013351867    9.3108166      168.98809     -86.390248     -54.044857     -22.469676     -24.968365     -0.026708956    0.001758453    0.013263517    33.794414      34.770278      35.172622      2              41329.279      1.2530731      2034.5449      1712.6499     -2127.211       146.79544           4356        7128       10809        2904 
     90000  -2602.2368      3786.8833      305.61003      1184.6465     -183.21716     -224.47807     -675.42825      1787.5299     -1785.5358      0.0017983819  -0.021866886    0.0018         0.013113603    68.438385     -181.12084      180.92003     -28.211985      18.257654     -35.559482     -0.02210951     0.0017983819   0.013028365    33.950208      34.771666      35.164352      2              41511.704      1.2475665      2019.4344      1702.1442     -2092.9221      151.84522           4356        7128       10809        2904 
     92000  -2616.4496      3677.997       296.82266      1061.5474     -193.00471     -400.9903      -686.29519      225.74006     -742.41577      0.0018383093  -0.016899089    0.00184        0.014620198    69.535821     -22.876113      75.222161      38.852499     -2.6886994      6.0260013     -0.017043508    0.0018383093   0.014514353    34.122636      34.773055      35.216645      2              41786.249      1.2393696      1964.0952      1702.308      -2124.9086      155.90177           4356        7128       10809        2904 
     94000  -2583.8692      3708.9132      299.31766      1125.044      -166.5764       179.94363     -251.62951     -484.48154      1275.9419      0.001878235   -0.016638985    0.00188        0.01452176     25.507955      49.101329     -129.27294      30.004254      46.170692      31.71357      -0.016778968    0.001878235    0.014417329    34.131664      34.774443      35.213228      2              41794.918      1.2391126      2038.7528      1707.7763     -2161.8851      148.44788           4356        7128       10809        2904 
     96000  -2488.437       3668.2565      296.03657      1179.8195     -164.73754      88.29882       330.27616     -1128.2896      1062.9099      0.0019181592  -0.019473626    0.00192        0.010486163   -33.470418      114.31887     -107.70427      1.3345656     -40.380371      30.478703     -0.019665736    0.0019181592   0.010431564    34.033276      34.775831      35.073156      2              41510.324      1.2476079      2011.0194      1752.5408     -2100.6383      161.7142            4356        7128       10809        2904 
     98000  -2639.452       3684.1051      297.31559      1044.6531     -130.69541     -1201.7262     -3093.0092     -1012.4132      500.24384      0.0019580817  -0.020063561    0.00196        0.0090090241   313.39843      102.58202     -50.687962     -35.519933     -7.8585911     -81.885527     -0.020267568    0.0019580817   0.008968685    34.0128        34.77722       35.021886      2              41426.359      1.2501366      1974.6048      1638.9818     -2080.0763      147.59932           4356        7128       10809        2904 
    100000  -2642.1242      3783.1643      305.30989      1141.0401     -174.62921      346.38317      1589.7993     -649.41977      98.770016      0.0019980027  -0.018986337    0.002          0.012751572   -161.07891      65.809899     -10.000729     -16.728427      1.8012261      0.14974422    -0.019168891    0.0019980027   0.012670956    34.050189      34.778608      35.151786      2              41627.385      1.2440995      1972.434       1702.9541     -2115.9984      153.94556           4356        7128       10809        2904 
    102000  -2490.0992      3686.5115      297.50979      1196.4122     -193.23423     -1306.7568      609.79139     -711.96955     -3818.0922      0.002037922   -0.017845313    0.00204        0.016444195   -61.790299      72.137097      386.86513      29.055134      112.39065      10.815891     -0.018006461    0.002037922    0.016310453    34.089793      34.779996      35.279954      2              41829.427      1.2380903      2054.0983      1752.5893     -2122.0394      153.49141           4356        7128       10809        2904 
    104000  -2542.1918      3650.3601      294.5923       1108.1683     -152.66363     -517.44637     -716.83601     -517.69115     -317.81196      0.0020778398  -0.016642178    0.00208        0.013576408    72.630936      52.452575      32.199846     -40.128223      33.258436      33.89659      -0.016782215    0.0020778398   0.013485075    34.131553      34.781385      35.180416      2              41764.173      1.2400248      2052.4867      1685.0822     -2088.5158      160.17875           4356        7128       10809        2904 
    106000  -2657.2132      3703.3826      298.87133      1046.1695     -142.56952      849.45666      1755.1866      309.90822      483.27519      0.002117756   -0.016981275    0.00212        0.010157568   -177.84437     -31.401543     -48.967948      29.8844        45.36768       23.042023     -0.01712711     0.002117756    0.010106327    34.119783      34.782773      35.061751      2              41610.608      1.2446011      2040.1625      1667.9506     -2164.5967      148.94025           4356        7128       10809        2904 
    108000  -2570.0476      3714.7092      299.78541      1144.6616     -157.96261     -1479.2298     -2736.6771     -553.28308     -1147.7291      0.0021576706  -0.017666078    0.00216        0.0076029857   277.29721      56.064879      116.29699     -11.399618      31.918254     -38.518163     -0.017823985    0.0021576706   0.0075742287   34.096014      34.784161      34.973083      2              41478.121      1.2485765      2053.4615      1779.8452     -2171.947       150.36826           4356        7128       10809        2904 
    110000  -2631.8821      3765.3083      303.86888      1133.4263     -171.38327     -726.8931      -1971.6657      94.651641     -303.66525      0.0021975835  -0.017791059    0.0022         0.011387977    199.77188     -9.5978151      30.761527      26.901339     -27.897132     -56.452857     -0.017951222    0.0021975835   0.011323622    34.091676      34.78555       35.104457      2              41630.295      1.2440125      1976.7753      1672.3729     -2115.0286      143.55965           4356        7128       10809        2904 
    112000  -2625.7862      3651.9394      294.71975      1026.1533     -154.9443       1786.6997      4434.5824     -498.51299      1424.0297      0.0022374949  -0.019026734    0.00224        0.014203293   -449.33208      50.513741     -144.28782     -3.6824881      50.060856      42.74292      -0.019210072    0.0022374949   0.014103371    34.048787      34.786938      35.202174      2              41695.323      1.2420724      2028.4151      1730.045      -2175.8317      148.3374            4356        7128       10809        2904 
    114000  -2544.945       3661.846       295.51923      1116.901      -170.59549     -1391.0841     -1861.8028     -1184.9806     -1126.469       0.0022774047  -0.018009121    0.00228        0.012429185    188.65057      120.07163      114.14287     -38.659935      33.830647      19.76002      -0.018173259    0.0022774047   0.012352576    34.084108      34.788327      35.140597      2              41667.227      1.2429099      1966.9639      1752.0088     -2065.2593      149.75765           4356        7128       10809        2904 
    116000  -2520.8637      3847.0963      310.46935      1326.2327     -216.29357     -2208.1037     -1118.4063     -2066.5839     -3439.3208      0.002317313   -0.015121174    0.00232        0.0109839      113.322        209.39609      348.48866     -9.084863       12.772245      10.691152     -0.015236665    0.002317313    0.010924015    34.184346      34.789715      35.090432      2              41731.775      1.2409874      2001.6711      1739.4598     -2061.2579      163.60489           4356        7128       10809        2904 
    118000  -2516.4786      3687.9009      297.62192      1171.4223     -124.05638      703.23446      393.82435      359.0824       1356.7966      0.0023572196  -0.013126233    0.00236        0.0059188172  -39.908549     -36.388207     -137.48162      9.8712454      43.670931      25.264127     -0.013213143    0.0023572196   0.0059013698   34.253589      34.791103      34.914627      2              41608.464      1.2446652      1988.3352      1733.3656     -2094.0311      156.30822           4356        7128       10809        2904 
    120000  -2574.2088      3631.5954      293.07794      1057.3865     -169.06314     -1093.4849     -319.09799     -743.92476     -2217.4321      0.0023971246  -0.010235931    0.0024         0.0027345286   32.330115      75.375573      224.67879      5.5558171      15.005394      10.39033      -0.010288678    0.0023971246   0.0027307965   34.353909      34.792492      34.804103      2              41599.885      1.2449219      1996.1342      1661.9009     -2077.7993      158.37148           4356        7128       10809        2904 
    122000  -2638.1479      3652.2454      294.74444      1014.0975     -185.30338     -781.91447      409.69881     -2960.6617      205.21943      0.002437028   -0.012218827    0.00244        0.0015091197  -41.509189      299.99267     -20.790388      38.348603     -20.991917     -33.187487     -0.012294091    0.002437028    0.0015079821   34.285084      34.79388       34.76157       2              41467.463      1.2488975      1982.8832      1737.8481     -2169.403       152.4672            4356        7128       10809        2904 
    124000  -2614.0414      3788.0183      305.70162      1173.9769     -151.85364     -592.31385      193.3066      -223.5043      -1746.7439      0.0024769299  -0.011798937    0.00248        0.0044985344  -19.586302      22.647063      176.98933     -34.035132      1.2968018     -59.850393     -0.011869097    0.0024769299   0.0044884462   34.299658      34.795268      34.86533       2              41610.579      1.244602       1983.4887      1686.0723     -2102.8629      156.02091           4356        7128       10809        2904 
    126000  -2643.1983      3682.6719      297.19993      1039.4737     -105.95924      216.93255     -177.71685      571.50143      257.01308      0.0025168301  -0.010989849    0.00252        0.0098211518   18.004218     -57.910281     -26.044848     -6.3555526      52.711114     -6.0830538     -0.011050684    0.0025168301   0.0097732378   34.327741      34.796657      35.050074      2              41866.984      1.2369797      2004.0202      1699.0353     -2186.4207      143.69617           4356        7128       10809        2904 
    128000  -2674.3653      3725.7093      300.67314      1051.344      -134.37109     -910.80714     -553.86078     -782.62904     -1395.9316      0.0025567288  -0.011577001    0.00256        0.014061007    56.122268      79.302151      141.44502      31.238898      63.560254      15.110887     -0.011644536    0.0025567288   0.013963068    34.307361      34.798045      35.197236      2              42019.485      1.2324903      1986.0732      1683.3895     -2119.7821      154.51894           4356        7128       10809        2904 
    130000  -2538.3309      3634.8041      293.33689      1096.4732     -118.2689      -1308.066      -186.56685     -1251.073      -2486.5582      0.0025966258  -0.015812906    0.0026         0.017733144    18.904219      126.76532      251.95086      46.526344      82.765183      4.0476227     -0.015939263    0.0025966258   0.017577746    34.160336      34.799434      35.324693      2              41992.594      1.2332796      2047.2088      1707.1195     -2081.4818      158.93851           4356        7128       10809        2904 
    132000  -2578.7723      3674.7286      296.55888      1095.9563     -131.99162      866.56513      22.805473      2146.7897      430.10018      0.0026365213  -0.019008022    0.00264        0.018378701   -2.3126777     -217.52554     -43.581855     -12.73996       50.980872      49.184559     -0.019190996    0.0026365213   0.018211854    34.049437      34.800822      35.347099      2              41884.488      1.2364627      2045.1801      1688.2552     -2181.8304      158.29883           4356        7128       10809        2904 
    134000  -2683.2191      3688.5411      297.67359      1005.322      -118.79683      820.51597     -395.1926       895.35727      1961.3832      0.0026764152  -0.022381663    0.00268        0.014471761    40.042836     -90.722131     -198.73721     -0.017481279    56.781473      13.03192      -0.022635933    0.0026764152   0.014368044    33.93234       34.80221       35.211493      2              41581.971      1.2454582      1957.7635      1707.3145     -2171.541       155.95569           4356        7128       10809        2904 
    136000  -2557.7402      3699.9113      298.59119      1142.1711     -95.215762     -366.67774      1521.7221     -1979.547      -642.20828      0.0027163075  -0.023324036    0.00272        0.012916559   -154.18575      200.58038      65.074511     -52.77717      -19.523478     -35.602878     -0.023600347    0.0027163075   0.012833851    33.899631      34.803599      35.157513      2              41479.859      1.2485242      2003.3719      1772.2251     -2164.0755      151.14278           4356        7128       10809        2904 
    138000  -2592.0273      3697.0078      298.35687      1104.9806     -132.9184       1906.0412      2367.2872     -188.61384      3539.4502      0.0027561982  -0.019760523    0.00276        0.012774432   -239.86822      19.108355     -358.63772     -36.421036      46.172891      22.856552     -0.019958373    0.0027561982   0.012693527    34.023318      34.804987      35.15258       2              41627.022      1.2441104      2072.4247      1709.5946     -2208.9204      155.27927           4356        7128       10809        2904 
    140000  -2692.1576      3624.4275      292.49948      932.26992     -169.94386     -277.13007     -425.82594      1136.5236     -1542.0879      0.0027960873  -0.015434596    0.0028         0.012671207    43.148472     -115.15657      156.25375      11.941412      93.790132     -4.0881601     -0.01555495     0.0027960873   0.012591599    34.173467      34.806375      35.148997      2              41808.134      1.2387209      1977.7862      1671.2195     -2122.6134      150.04176           4356        7128       10809        2904 
    142000  -2648.1108      3733.1516      301.27376      1085.0409     -130.91983      341.46496      2161.8919      890.53419     -2028.0312      0.0028359748  -0.014773535    0.00284        0.012714856   -219.05178     -90.231424      205.49222      48.306517      44.049309      7.7429211     -0.01488375     0.0028359748   0.012634701    34.196412      34.807764      35.150512      2              41839.677      1.237787       2032.584       1690.2626     -2184.769       150.69028           4356        7128       10809        2904 
    144000  -2589.2124      3684.3324      297.33394      1095.1201     -160.30978     -153.65888      1312.2979     -141.32639     -1631.9481      0.0028758607  -0.014275316    0.00288        0.010863055   -132.97071      14.317908      165.35502     -38.765869      32.379018      6.7928641     -0.014378189    0.0028758607   0.010804476    34.213705      34.809152      35.086237      2              41785.957      1.2393783      2049.8228      1715.2581     -2155.1395      147.56954           4356        7128       10809        2904 
    146000  -2681.5615      3643.6077      294.04736      962.04619     -156.08871     -304.3336      -828.0278      -1014.0966      929.1236       0.0029157451  -0.013030881    0.00292        0.0072071261   83.898816      102.75225     -94.144553      24.459508      47.085237      28.346956     -0.013116528    0.0029157451   0.0071812789   34.256898      34.81054       34.959343      2              41689.057      1.2422591      1952.4275      1718.3156     -2128.8085      153.54761           4356        7128       10809        2904 
    148000  -2570.8966      3687.0433      297.55271      1116.1467     -180.96632     -868.99711      972.07755     -913.81583     -2665.253       0.0029556278  -0.012961597    0.00296        0.0040652539  -98.492143      92.595991      270.06025      16.569055      29.316267     -38.849904     -0.013046331    0.0029556278   0.0040570131   34.259303      34.811929      34.850291      2              41563.587      1.2460091      2044.821       1716.5328     -2123.0895      148.15795           4356        7128       10809        2904 
    150000  -2572.5723      3688.536       297.67318      1115.9637     -209.66784      43.91289      -1780.6626      564.96187      1347.4394      0.002995509   -0.01387724     0.003          0.0019109165   180.42359     -57.247004     -136.53143     -7.9982753      41.939824     -32.688463     -0.013974429    0.002995509    0.001909093    34.227522      34.813317      34.775516      2              41437.586      1.2497979      2053.0732      1748.6895     -2112.5176      144.12776           4356        7128       10809        2904 
    152000  -2681.7729      3666.3867      295.88568      984.61389     -144.77068      1443.933       631.59622      2099.1853      1601.0174      0.0030353885  -0.012978347    0.00304        0.0029964698  -64.000637     -212.70407     -162.22719     -21.958988      46.493147      0.84798001    -0.013063302    0.0030353885   0.0029919893   34.258722      34.814706      34.813195      2              41521.952      1.2472585      1974.9974      1703.1916     -2155.8148      157.4785            4356        7128       10809        2904 
    154000  -2641.5447      3690.6876      297.84682      1049.1429     -133.45173      803.04571      843.5989       504.01664      1061.5216      0.0030752665  -0.011673544    0.00308        0.0065924116  -85.469769     -51.061341     -107.55066      12.412441      4.0215662     -17.350487     -0.011742215    0.0030752665   0.0065707767   34.30401       34.816094      34.938007      2              41727.567      1.2411126      2064.5457      1646.4887     -2165.4437      156.83488           4356        7128       10809        2904 
    156000  -2580.6405      3713.0537      299.65181      1132.4132     -133.69939     -239.22747      1026.821      -1228.1332     -516.37019      0.0031151429  -0.011559154    0.00312        0.013162894   -104.04325      124.43999      52.320603     -0.6046827      43.319894     -42.375108     -0.011626481    0.0031151429   0.013077016    34.307981      34.817482      35.166063      2              42006.478      1.232872       2088.4298      1664.0794     -2157.8423      148.01714           4356        7128       10809        2904 
    158000  -2609.0723      3613.5181      291.61906      1004.4458     -194.81188     -2020.6832      87.610113     -1756.6524     -4393.0073      0.0031550177  -0.011468071    0.00316        0.015454221   -8.8824021      177.98751      445.11611      39.860762      116.23581      106.24774     -0.011534336    0.0031550177   0.015336021    34.311142      34.818871      35.245593      2              42107.037      1.2299277      2008.9778      1771.4868     -2180.2348      150.42297           4356        7128       10809        2904 
    160000  -2626.7818      3673.7565      296.48043      1046.9746     -131.71703      171.09547      740.56011     -55.674716     -171.59899      0.0031948909  -0.015685488    0.0032         0.012361928   -75.028094      5.6503397      17.396336     -6.5926773      41.469019     -13.222056     -0.015809807    0.0031948909   0.012286143    34.164759      34.820259      35.138262      2              41801.382      1.238921       1988.5026      1731.4018     -2154.7956      158.07716           4356        7128       10809        2904 
    162000  -2616.3009      3729.0053      300.93914      1112.7043     -155.23704     -1551.24       -2560.6154     -617.39182     -1475.7128      0.0032347625  -0.017074258    0.00324        0.010972202    259.45296      62.555836      149.52524     -51.950525     -22.831824     -20.917525     -0.017221704    0.0032347625   0.010912444    34.116556      34.821647      35.090026      2              41686.764      1.2423274      1995.815       1717.6434     -2095.5165      157.40351           4356        7128       10809        2904 
    164000  -2659.2561      3678.1146      296.83214      1018.8585     -141.56343     -939.8538      -1927.6181     -1016.0888      124.14547      0.0032746325  -0.014409998    0.00328        0.0093337635   195.31331      102.95269     -12.58158      -21.019136      1.3513611      10.071631     -0.01451483     0.0032746325   0.0092904731   34.20903       34.823036      35.033157      2              41733.679      1.2409308      1998.4673      1705.444      -2159.154       146.28143           4356        7128       10809        2904 
    166000  -2623.8131      3718.6855      300.10631      1094.8724     -162.53322     -589.3265      -1064.5092     -704.86029      1.389982       0.003314501   -0.010435253    0.00332        0.0096061089   107.86866      71.427376     -0.1336973      4.5937068      23.351975     -23.875502     -0.010490082    0.003314501    0.0095602636   34.34699       34.824424      35.04261       2              41914.962      1.2355638      2074.6097      1706.9499     -2181.8249      144.589             4356        7128       10809        2904 
    168000  -2613.2123      3755.5375      303.08035      1142.3252     -145.18257     -776.25439     -1073.402      -145.60123     -1109.76        0.0033543678  -0.0089645039   0.00336        0.0098759527   108.75885      14.749485      112.44281      40.173413      73.642521      53.561106     -0.0090049268   0.0033543678   0.0098275042   34.398039      34.825812      35.051976      2              41990.152      1.2333513      2043.8779      1724.5684     -2163.9638      156.06555           4356        7128       10809        2904 
    170000  -2678.4672      3699.2138      298.5349       1020.7467     -154.35652     -865.81035     -133.24549     -693.53153     -1770.654       0.0033942331  -0.0097001622   0.0034         0.0041881457   13.50084       70.271807      179.41124      16.589823      100.33508      17.450805     -0.0097475153   0.0033942331   0.0041793998   34.372505      34.827201      34.854557      2              41724.325      1.241209       1988.4582      1650.8837     -2084.9465      152.33442           4356        7128       10809        2904 
    172000  -2617.309       3797.0661      306.4318       1179.7571     -158.4548       266.20751      652.37861     -249.96164      396.20557      0.0034340967  -0.011341232    0.00344        0.0013168501  -66.09032       25.339656     -40.133158      11.890727      7.3739194     -73.297022     -0.011406034    0.0034340967   0.0013159838   34.315545      34.828589      34.754896      2              41537.732      1.2467847      1996.2067      1670.5835     -2098.4702      149.66931           4356        7128       10809        2904 
    174000  -2601.7463      3742.716       302.04562      1140.9697     -175.88165      996.47465      1482.6616      1216.6013      290.16106      0.0034739588  -0.011837179    0.00348        0.0058147732  -150.23627     -123.27786     -29.406444     -6.5292408      7.6626541     -47.960121     -0.011907797    0.0034739588   0.0057979326   34.298331      34.829978      34.911016      2              41705.052      1.2417826      1984.9874      1737.6279     -2118.5945      144.76684           4356        7128       10809        2904 
    176000  -2659.0641      3679.6045      296.95239      1020.5404     -102.24706     -1106.0701     -302.71039     -2789.5405     -225.95949      0.0035138193  -0.014180443    0.00352        0.011275656    30.67123       282.64929      22.894444      10.245867      70.317061      11.423761     -0.014281946    0.0035138193   0.01121256     34.216998      34.831366      35.100559      2              41833.715      1.2379634      2011.1844      1698.5196     -2140.2517      143.58194           4356        7128       10809        2904 
    178000  -2635.6129      3746.1127      302.31974      1110.4998     -130.89077     -64.525789     -169.49804     -1518.7175      1494.6382      0.0035536782  -0.016994303    0.00356        0.014004792    17.182025      153.89212     -151.43633     -4.7917394      41.276949      14.821056     -0.017140363    0.0035536782   0.013907631    34.119331      34.832754      35.195285      2              41828.55       1.2381163      1980.6068      1689.9335     -2106.9455      164.44122           4356        7128       10809        2904 
    180000  -2606.5542      3757.4925      303.23812      1150.9383     -170.05365     -252.75479      467.38937      877.34628     -2103           0.0035935355  -0.014880381    0.0036         0.01698158    -47.361917     -88.900805      213.08271     -72.413445      31.019327      21.146245     -0.014992205    0.0035935355   0.016839005    34.192704      34.834143      35.298606      2              42043.235      1.2317941      2039.5976      1707.6313     -2174.7482      147.49566           4356        7128       10809        2904 
    182000  -2655.7654      3707.3852      299.19435      1051.6198     -141.50492      460.74051      1356.2653     -826.7399       852.69612      0.0036333912  -0.011860881    0.00364        0.015220505   -137.42351      83.769498     -86.39936       26.574621      80.177335      79.980939     -0.011931782    0.0036333912   0.015105836    34.297508      34.835531      35.237481      2              42100.752      1.2301112      1950.7578      1694.8368     -2126.1119      145.92163           4356        7128       10809        2904 
    184000  -2631.8012      3720.1968      300.22827      1088.3956     -171.81744      925.64046      2.452253       749.20398      2025.2651      0.0036732454  -0.012348086    0.00368        0.0086477209  -0.24670338    -75.911318     -205.20815      31.820656      50.11324       3.0117085     -0.012424958    0.0036732454   0.0086105435   34.280598      34.836919      35.009345      2              41809.225      1.2386886      2070.8167      1629.7599     -2174.6683      152.67846           4356        7128       10809        2904 
    186000  -2604.992       3779.8679      305.04387      1174.8759     -119.56951      1825.6122      2299.4617      1337.9251      1839.4497      0.0037130979  -0.01304705     0.00372        0.0059657912  -232.98978     -135.56209     -186.3791      -15.762135     -16.196725     -46.074082     -0.013132911    0.0037130979   0.0059480663   34.256337      34.838308      34.916257      2              41670.207      1.242821       2032.6052      1699.6488     -2191.1379      143.69287           4356        7128       10809        2904 
    188000  -2544.1201      3789.4362      305.81605      1245.3161     -148.78072      641.28279      497.71055     -240.87859      1667.0164      0.0037529489  -0.012645332    0.00376        0.0057419129  -50.437159      24.400302     -168.91677      1.8070599      22.858792     -7.5220576     -0.012725964    0.0037529489   0.005725491    34.27028       34.839696      34.908487      2              41679.552      1.2425424      2129.0859      1758.946      -2215.8416      153.1427            4356        7128       10809        2904 
    190000  -2531.8998      3607.1747      291.10714      1075.2749     -148.87927     -24.234914      274.99779      1002.3591     -1350.0616      0.0037927982  -0.010640507    0.0038         0.0051698378  -27.865314     -101.56515      136.79392     -17.583211      50.949738      34.381596     -0.010697522    0.0037927982   0.0051565201   34.339866      34.841085      34.88863       2              41742.09       1.2406808      1996.1106      1783.9299     -2138.9433      146.09749           4356        7128       10809        2904 
    192000  -2618.3988      3699.3943      298.54947      1080.9956     -134.93147      1316.0642      1401.8804     -332.64588      2878.9582      0.003832646   -0.010938544    0.00384        0.0030470826  -142.04301      33.707856     -291.70799      25.077795      12.991663     -30.341796     -0.010998809    0.003832646    0.0030424497   34.329522      34.842473      34.814951      2              41643.049      1.2436315      1953.5193      1780.8279     -2177.3035      152.29216           4356        7128       10809        2904 
    194000  -2531.5478      3737.3532      301.61283      1205.8054     -187.6568      -1324.8699     -776.05886     -2865.984      -332.5668       0.0038724922  -0.010169277    0.00388        0.0060632753   78.633341      290.39501      33.696511     -6.726739      -12.830141     -27.020159     -0.010221337    0.0038724922   0.0060449676   34.356222      34.843861      34.919641      2              41802.422      1.2388901      2016.6364      1718.4259     -2053.6894      146.27741           4356        7128       10809        2904 
    196000  -2658.0231      3696.8776      298.34636      1038.8545     -180.20715     -403.56065      1583.8256     -1321.1281     -1473.3794      0.0039123368  -0.01102299     0.00392        0.0086897701  -160.48252      133.8619       149.28874      7.7269134      50.879144      15.729857     -0.011084193    0.0039123368   0.0086522313   34.326591      34.84525       35.010804      2              41877.075      1.2366816      2031.6175      1644.6869     -2146.4906      151.92811           4356        7128       10809        2904 
    198000  -2618.6299      3705.1948      299.01758      1086.5649     -216.0575      -1776.8026     -1535.6359     -3324.6155     -470.15634      0.0039521798  -0.011092994    0.00396        0.0095845689   155.60087      336.86928      47.641218      22.010254      48.340601     -36.607534     -0.01115498     0.0039521798   0.0095389283   34.324161      34.846638      35.041862      2              41912.927      1.2356238      1949.943       1725.1677     -2121.4538      153.76058           4356        7128       10809        2904 
    200000  -2525.6653      3717.1734      299.98428      1191.5082     -162.95607     -149.64594     -973.73337     -325.46936      850.26491      0.0039920213  -0.013251124    0.004          0.0096406582   98.668043      32.982667     -86.148505     -7.3499991      58.417782      60.557357     -0.013339704    0.0039920213   0.0095944836   34.249254      34.848026      35.043809      2              41825.448      1.2382081      2013.2199      1735.1402     -2071.7505      159.63698           4356        7128       10809        2904 
    202000  -2495.5942      3758.4329      303.31402      1262.8388     -188.53066     -1080.1309     -1466.4484      888.76903     -2662.7133      0.0040318611  -0.014105268    0.00404        0.0090700163   148.57965     -90.062977      269.79103     -30.933448      5.2050571     -33.796232     -0.014205693    0.0040318611   0.0090291308   34.219607      34.849415      35.024003      2              41767.289      1.2399323      2104.7418      1768.1278     -2165.1536      155.80552           4356        7128       10809        2904 
    204000  -2557.5972      3634.9706      293.35033      1077.3734     -142.63224      778.64126      449.70827      193.76298      1692.4525      0.0040716994  -0.013557689    0.00408        0.010749592   -45.569787     -19.636228     -171.49101      19.36503       60.94502      -8.6441228     -0.013650433    0.0040716994   0.010692226    34.238613      34.850803      35.082299      2              41861.714      1.2371354      2101.618       1724.9364     -2231.8605      147.49524           4356        7128       10809        2904 
    206000  -2570.9524      3624.8661      292.53487      1053.9137     -139.89156     -464.06895     -1143.874       229.33182     -477.66467      0.004111536   -0.012653525    0.00412        0.012596797    115.90748     -23.232408      48.404201     -56.070838      92.054844     -19.298638     -0.012734263    0.004111536    0.012518118    34.269996      34.852191      35.146414      2              41978.331      1.2336986      1988.8058      1685.8406     -2092.8978      157.32471           4356        7128       10809        2904 
    208000  -2582.1807      3771.1381      304.33935      1188.9574     -165.46238     -2644.3856     -2070.564      -1370.8237     -4491.7692      0.0041513711  -0.011202553    0.00416        0.013030074    209.79925      138.89805      455.12782      49.492739      86.910402      57.434309     -0.011265775    0.0041513711   0.012945912    34.320358      34.85358       35.161453      2              42059.685      1.2313123      1996.3735      1673.6572     -2063.3628      145.14806           4356        7128       10809        2904 
    210000  -2613.8161      3710.1471      299.41724      1096.3309     -126.60073      1748.2876      953.12443      1712.065       2579.6733      0.0041912046  -0.012513244    0.0042         0.0098039015  -96.577633     -173.47721     -261.38763      18.78243       74.053971      6.9172363     -0.012592193    0.0041912046   0.0097561551   34.274865      34.854968      35.049475      2              41871.832      1.2368365      1955.2493      1735.3984     -2146.0857      147.50566           4356        7128       10809        2904 
    212000  -2568.4134      3640.3008      293.78049      1071.8874     -129.93975      217.15211      970.18983      391.76238     -710.49588      0.0042310365  -0.013106161    0.00424        0.0071708936  -98.303728     -39.694593      71.991718     -12.517071      13.509986     -22.108366     -0.013192804    0.0042310365   0.007145305    34.254285      34.856357      34.958086      2              41739.24       1.2407655      2005.8721      1691.1862     -2120.07        147.19401           4356        7128       10809        2904 
    214000  -2577.4759      3724.055       300.53964      1146.5791     -113.86333      1293.5603      307.44151     -577.59976      4150.8392      0.0042708669  -0.014734372    0.00428        0.0056799028  -31.15104       58.525765     -420.58331      5.6940337     -5.6121372     -15.04308      -0.014844001    0.0042708669   0.005663833    34.197771      34.857745      34.906334      2              41610.347      1.2446089      2038.2822      1702.9683     -2122.7705      160.03918           4356        7128       10809        2904 
    216000  -2528.6066      3635.363       293.38199      1106.7564     -121.47785     -1214.2144      655.60683     -2335.7186     -1962.5314      0.0043106956  -0.012838584    0.00432        0.0098153109  -66.431914      236.66425      198.85099     -54.22501       14.61943      -53.832832     -0.012921711    0.0043106956   0.0097674537   34.263573      34.859133      35.049871      2              41863.512      1.2370823      2041.7753      1708.4441     -2111.2796      146.428             4356        7128       10809        2904 
    218000  -2618.7977      3658.4819      295.24774      1039.6842     -168.81879     -2268.4962     -3356.3325     -584.54313     -2864.6129      0.0043505227  -0.012343578    0.00436        0.017747694    340.082        59.230498      290.25852      67.833982      101.35322     -3.1366488     -0.012420392    0.0043505227   0.017592042    34.280754      34.860522      35.325198      2              42215.2        1.2267764      1995.1306      1693.3456     -2096.8627      144.66767           4356        7128       10809        2904 
    220000  -2489.6071      3708.6126      299.2934       1219.0056     -126.27662     -1336.358      -529.36509     -573.55869     -2906.1502      0.0043903483  -0.017021845    0.0044         0.020228984    53.639529      58.117443      294.46732      1.4187612      108.27667      88.853324     -0.017168382    0.0043903483   0.020027096    34.118375      34.86191       35.411321      2              42119.349      1.2295681      2049.3284      1672.4977     -2080.6972      149.9966            4356        7128       10809        2904 
    222000  -2542.5955      3656.1703      295.06119      1113.5749     -146.69117      662.53132      1520.2733     -52.965681      520.2864       0.0044301723  -0.020416991    0.00444        0.014903456   -154.04513      5.3632929     -52.721615      0.77678997     56.101986      50.466499     -0.020628299    0.0044301723   0.014793491    34.000532      34.863298      35.226476      2              41756.433      1.2402546      1994.2053      1713.2093     -2088.0437      153.82861           4356        7128       10809        2904 
    224000  -2617.142       3692.0802      297.9592       1074.9382     -183.15158     -247.46979      1883.2296     -2378.0364     -247.60264      0.0044699947  -0.020502104    0.00448        0.0081155856  -190.81825      240.95453      25.08833      -42.509646      36.01057      -11.173148     -0.02071519     0.0044699947   0.0080828313   33.997578      34.864687      34.990875      2              41475.206      1.2486643      2002.3297      1684.2458     -2158.4886      143.72616           4356        7128       10809        2904 
    226000  -2594.7137      3690.7323      297.85042      1096.0186     -188.44985     -2540.1455     -2987.6927     -791.16403     -3841.5799      0.0045098155  -0.016697522    0.00452        0.0082976954   302.731        80.167811      389.25103     -33.672095      48.822512     -63.918716     -0.016838497    0.0045098155   0.0082634588   34.129632      34.866075      34.997196      2              41645.484      1.2435588      1992.0361      1692.544      -2095.9814      154.15305           4356        7128       10809        2904 
    228000  -2589.3313      3781.0557      305.13973      1191.7244     -165.31283     -325.87958      1966.0235     -1847.5416     -1096.1206      0.0045496347  -0.015398635    0.00456        0.0068897901  -199.20931      187.20016      111.06255      47.952237      68.234875      57.478738     -0.015518425    0.0045496347   0.0068661639   34.174715      34.867464      34.948329      2              41643.927      1.2436053      2019.4073      1695.3929     -2125.4799      150.52014           4356        7128       10809        2904 
    230000  -2628.9205      3670.136       296.18826      1041.2155     -172.01946     -2090.7436     -2059.9939     -2738.9771     -1473.2596      0.0045894523  -0.013935312    0.0046         0.0067635195   208.72797      277.52593      149.27709     -64.626918      33.487486     -67.805927     -0.01403332     0.0045894523   0.0067407496   34.225506      34.868852      34.943946      2              41702.249      1.2418661      2051.8389      1634.6303     -2102.8755      156.91878           4356        7128       10809        2904 
    232000  -2574.4848      3668.5953      296.06392      1094.1105     -182.8084      -2070.0527     -1739.2755     -2405.7802     -2065.1024      0.0046292684  -0.010819296    0.00464        0.010047166    176.23434      243.76789      209.24873      60.258297      94.266606      32.708965     -0.01087825     0.0046292684   0.009997029    34.333661      34.87024       35.057919      2              41972.146      1.2338804      2033.6561      1722.0901     -2142.1819      145.09833           4356        7128       10809        2904 
    234000  -2547.3645      3687.0168      297.55057      1139.6523     -152.00298     -1576.0994     -1003.9729     -5072.2828      1347.9574      0.0046690828  -0.012949742    0.00468        0.0080347582   101.72866      513.95018     -136.58066      41.890539      74.039752      62.556431     -0.013034321    0.0046690828   0.0080026514   34.259715      34.871629      34.98807       2              41799.968      1.2389629      2073.123       1697.1136     -2117.1393      146.89295           4356        7128       10809        2904 
    236000  -2590.0295      3663.7064      295.66937      1073.6769     -129.91898      1105.3582     -508.814        711.67545      3113.2131      0.0047088957  -0.020211697    0.00472        0.0012597901   51.552341     -72.11378      -315.44949      12.035313     -6.5219604     -36.97441      -0.020418748    0.0047088957   0.0012589973   34.007658      34.873017      34.752916      2              41215.208      1.2565413      2016.5051      1698.3979     -2123.5171      153.0083            4356        7128       10809        2904 
    238000  -2652.8981      3656.9084      295.12075      1004.0103     -172.78478      75.730029      1125.1968     -613.57844     -284.42827      0.004748707   -0.020446594    0.00476        0.0065413891  -114.01031      62.171097      28.819952     -62.963055     -58.842771     -108.59115     -0.02065852     0.004748707    0.006520087    33.999505      34.874405      34.936236      2              41424.332      1.2501978      2003.2289      1657.0403     -2120.5158      152.3875            4356        7128       10809        2904 
    240000  -2588.3038      3756.6852      303.17297      1168.3814     -166.26446     -861.40333      106.38292     -777.13332     -1913.4596      0.0047885167  -0.01858117     0.0048         0.011507172   -10.77581       78.746451      193.88454      33.167037      28.603612      49.84345      -0.018755969    0.0047885167   0.011441468    34.064252      34.875794      35.108594      2              41709.636      1.2416461      2032.5006      1754.5383     -2179.2997      150.83074           4356        7128       10809        2904 
    242000  -2589.1993      3691.2836      297.89492      1102.0844     -96.236132      980.80042      2403.4104      2458.8672     -1919.8764      0.0048283249  -0.016818989    0.00484        0.0086058075  -243.53097     -249.15015      194.52618     -57.570105     -30.087756      77.768393     -0.016962034    0.0048283249   0.0085689887   34.125416      34.877182      35.00789       2              41666.333      1.2429366      2068.9158      1674.4924     -2165.6045      146.99657           4356        7128       10809        2904 
    244000  -2592.8196      3637.4559      293.5509       1044.6364     -218.15165      723.37293      251.44595      749.23944      1169.4334      0.0048681314  -0.012476572    0.00488        0.0044929996  -25.477159     -75.916065     -118.49223      8.5268122      74.665737     -6.203419      -0.012555058    0.0048681314   0.0044829362   34.276138      34.87857       34.865138      2              41681.366      1.2424883      2099.4651      1679.066      -2154.9127      155.36809           4356        7128       10809        2904 
    246000  -2620.5658      3732.3767      301.21122      1111.8109     -158.34947      1589.3818      2556.3046     -104.5502       2316.3912      0.0049079364  -0.010205535    0.00492       -0.00011358664 -259.01298      10.598115     -234.70361     -37.038205      31.933385      12.013042     -0.010257969    0.0049079364  -0.00011359309  34.354964      34.879959      34.705247      2              41587.288      1.245299       2041.3407      1680.8932     -2175.9996      147.24698           4356        7128       10809        2904 
    248000  -2500.1884      3704.9645      298.99899      1204.7762     -184.51476     -1108.2823     -1542.5288      856.82464     -2639.1426      0.0049477397  -0.0070799536   0.00496       -0.0012105767   156.29251     -86.821831      267.40714      32.842945      30.264896     -37.389751     -0.0071051354   0.0049477397  -0.00121131     34.46345       34.881347      34.667171      2              41674.501      1.242693       2000.8804      1721.9996     -2041.6988      160.0566            4356        7128       10809        2904 
    250000  -2681.9155      3704.6358      298.97246      1022.7202     -185.31935      182.86412     -625.11485      1089.0363      84.670873      0.0049875415  -0.0084752261   0.005         -0.0024245882   63.339916     -110.34645     -8.5791198      46.449872      47.197436      3.3083653     -0.008511345    0.0049875415  -0.0024275323   34.415021      34.882736      34.625034      2              41567.01       1.2459065      1947.7026      1665.5367     -2108.5765      146.00999           4356        7128       10809        2904 
    252000  -2563.1593      3684.3443      297.3349       1121.1851     -184.74246     -2044.0895     -1047.1072     -4641.7921     -443.36923      0.0050273417  -0.012022821    0.00504       -9.1860167e-05  106.1003       470.3318       44.926661     -14.009202      63.217313     -46.046645     -0.012095679    0.0050273417  -9.1864387e-05  34.291887      34.884124      34.706001      2              41516.792      1.2474136      2070.5104      1680.617      -2088.01        153.8337            4356        7128       10809        2904 
    254000  -2539.8961      3684.5816      297.35404      1144.6854     -121.94356     -194.32137      1203.5478     -1065.9782     -720.53368      0.0050671403  -0.014290708    0.00508        0.0055676262  -121.95445      108.00554      73.003111      25.074305      50.08442      -7.4082138     -0.014393804    0.0050671403   0.0055521843   34.213171      34.885512      34.902437      2              41657.594      1.2431973      2062.0763      1707.9138     -2157.0287      151.97998           4356        7128       10809        2904 
    256000  -2671.2329      3671.375       296.28825      1000.1421     -173.93773      83.839164      647.82771      325.6288      -721.93902      0.0051069374  -0.015364213    0.00512        0.0092488707  -65.641007     -32.994201      73.150604     -35.035171      60.056952      18.246163     -0.015483466    0.0051069374   0.0092063618   34.17591       34.886901      35.03021       2              41766.225      1.2399638      2000.2095      1712.3069     -2178.3432      150.21028           4356        7128       10809        2904 
    258000  -2577.5116      3722.7542      300.43466      1145.2426     -195.124       -1150.2893     -655.19781     -2165.8531     -629.81694      0.0051467328  -0.016542698    0.00516        0.0093612978   66.392369      219.45982      63.820916      17.893958      65.759799      23.526815     -0.016681057    0.0051467328   0.0093177524   34.135006      34.888289      35.034113      2              41722.544      1.241262       1988.879       1721.8911     -2069.9204      156.61518           4356        7128       10809        2904 
    260000  -2539.4285      3680.7765      297.04696      1141.348      -173.78885     -30.455861      1807.6159     -826.65854     -1072.325       0.0051865267  -0.018613883    0.0052         0.0082493064  -183.15808      83.759816      108.65188     -10.28353       55.619448     -5.1581927     -0.018789301    0.0051865267   0.0082154669   34.063117      34.889677      34.995516      2              41590.462      1.245204       2005.0827      1813.7102     -2176.729       144.75607           4356        7128       10809        2904 
    262000  -2598.1606      3673.6473      296.47163      1075.4867     -150.0493      -729.1482       1067.2273     -2778.7037     -475.96819      0.005226319   -0.019359599    0.00524        0.0083835459  -108.14047      281.54816      48.223655     -10.598494      5.7839047     -24.585713     -0.01954945     0.005226319    0.0083485991   34.037234      34.891066      35.000176      2              41566.046      1.2459354      2029.0676      1700.0163     -2105.4733      158.07941           4356        7128       10809        2904 
    264000  -2749.0613      3654.1296      294.8965       905.06838     -169.63539      1008.1107     -809.91382      1308.5222      2525.7238      0.0052661097  -0.019496595    0.00528        0.0082936209   82.062904     -132.58768     -255.9206       2.7911455      73.863084      5.8151686     -0.01968916     0.0052661097   0.0082594178   34.032479      34.892454      34.997054      2              41558.187      1.246171       2004.5978      1655.5643     -2191.7969      148.08762           4356        7128       10809        2904 
    266000  -2589.4699      3696.005       298.27594      1106.5351     -213.30884      3802.2696      4474.2929      2030.147       4902.3688      0.0053058988  -0.019110626    0.00532        0.0091460968  -453.35496     -205.70184     -496.72979     -21.500385      36.037019      7.5691507     -0.019295594    0.0053058988   0.0091045245   34.045875      34.893842      35.026643      2              41611.351      1.2445789      2127.2181      1768.2765     -2273.1392      148.8337            4356        7128       10809        2904 
    268000  -2550.1449      3674.4251      296.5344       1124.2803     -150.77524      1040.0289      892.50611     -715.96223      2943.5429      0.0053456863  -0.016923909    0.00536        0.009344974   -90.436194      72.541796     -298.25746     -4.3130429      0.59104047     28.673907     -0.017068755    0.0053456863   0.0093015799   34.121774      34.895231      35.033546      2              41713.995      1.2415164      2103.1769      1713.564      -2172.5746      163.36215           4356        7128       10809        2904 
    270000  -2630.3685      3626.8556      292.69543      996.48718     -184.81754     -151.22901     -517.85437      144.51883     -80.351494      0.0053854723  -0.013139782    0.0054         0.0071401921   52.471682     -14.643281      8.1417068      20.428506      39.170561      22.432981     -0.013226873    0.0053854723   0.0071148216   34.253118      34.896619      34.95702       2              41784.756      1.2394139      1979.1207      1691.6767     -2109.7108      146.94308           4356        7128       10809        2904 
    272000  -2556.603       3739.0329      301.74839      1182.4299     -220.03315      899.74609      2058.3625      2388.5181     -1747.6423      0.0054252566  -0.012625735    0.00544        0.0050101032  -208.56088     -242.01387      177.08255      53.960957      88.307407     -30.803235     -0.012706117    0.0054252566   0.0049975944   34.270961      34.898008      34.883086      2              41719.761      1.2413448      2063.1703      1679.9742     -2122.5867      161.42196           4356        7128       10809        2904 
    274000  -2610.5806      3707.0464      299.16701      1096.4658     -143.60608      695.22862      532.28011     -149.79286      1703.1986      0.0054650394  -0.018175344    0.00548        0.0053106931  -53.937934      15.17296      -172.58141      17.30322       39.364032     -63.59533      -0.018342545    0.0054650394   0.0052966411   34.078338      34.899396      34.893519      2              41499.331      1.2479384      2053.1084      1688.9445     -2161.0379      159.9796            4356        7128       10809        2904 
    276000  -2617.1303      3633.3147      293.21669      1016.1844     -168.14431     -448.17453      1227.3345     -1833.0258     -738.83222      0.0055048206  -0.023622596    0.00552        0.01036574    -124.35873      185.73225      74.863086     -39.412909      51.897464      14.29396      -0.023906082    0.0055048206   0.010312384    33.889268      34.900784      35.068976      2              41478.254      1.2485725      2002.2827      1672.1974     -2115.9252      151.71617           4356        7128       10809        2904 
    278000  -2532.1645      3725.3352      300.64296      1193.1707     -150.74997     -434.45769     -232.10536     -277.91631     -793.35139      0.0055446003  -0.025204496    0.00556        0.012644725    23.523771      28.165905      80.392442     -37.800213      72.386283      2.7239012     -0.02552757     0.0055446003   0.012565448    33.834362      34.902173      35.148078      2              41506.11       1.2477346      2009.4725      1731.3192     -2076.6355      160.43108           4356        7128       10809        2904 
    280000  -2606.3425      3743.1069      302.07717      1136.7644     -145.99848      1282.51        234.72833      1817.0806      1795.7211      0.0055843783  -0.024443876    0.0056         0.015796857   -23.787861     -184.11968     -181.9555      -21.593169      35.739252      17.368913     -0.024747587    0.0055843783   0.015673385    33.860762      34.903561      35.257486      2              41669.454      1.2428435      2023.8642      1681.0783     -2156.3602      159.51071           4356        7128       10809        2904 
    282000  -2555.291       3628.1972      292.8037       1072.9062     -164.32052      214.89549     -452.65263      59.426492      1037.9126      0.0056241548  -0.020944842    0.00564        0.013305217    45.865411     -6.0210109     -105.16611     -49.566703      31.529792      70.888501     -0.021167297    0.0056241548   0.01321748     33.982211      34.904949      35.171003      2              41717.992      1.2413974      2027.1453      1752.7465     -2139.0446      150.78707           4356        7128       10809        2904 
    284000  -2577.6078      3772.4658      304.4465       1194.858      -189.78089     -1491.4298      146.44034     -2391.9688     -2228.7608      0.0056639296  -0.013718022    0.00568        0.00827252    -14.832507      242.37183      225.83467      38.096718      15.484543      14.675143     -0.013812983    0.0056639296   0.0082384902   34.233048      34.906338      34.996322      2              41818.867      1.238403       2028.6476      1752.6837     -2144.2642      149.06668           4356        7128       10809        2904 
[...]
   4938000  -2511.4038      3605.3651      290.9611       1093.9613     -194.32605     -431.02968     -1628.3806     -1127.1727      1462.4643      0.094182271   -0.049821803    0.09876       -0.048594811    164.99738      114.21249     -148.18248     -10.093068      184.36577     -28.910906     -0.051105736    0.094182271   -0.049815241    32.979915      38.137069      33.022503      2              41534.295      1.2468879      2087.7559      1761.3527     -2146.8018      152.88538           4356        7128       10809        2904 
   4940000  -2535.1539      3760.0839      303.44725      1224.93       -173.15537     -916.85685      788.87774     -2552.146      -987.30226      0.094218675   -0.053951073    0.0988        -0.043987424   -79.928087      258.60113      100.04319     -20.127599      136.79679     -94.648825     -0.055460992    0.094218675   -0.044984211    32.836592      38.138458      33.182422      2              41555.573      1.2462494      1972.1946      1770.2145     -2116.1506      151.61477           4356        7128       10809        2904 
   4942000  -2564.6929      3659.3438      295.3173       1094.6508     -235.70648     -3307.9084     -1235.7421     -3739.751      -4948.2323      0.094255078   -0.056364083    0.09884       -0.037782573    125.20702      378.92555      501.37517     -3.0714399      216.94473      56.350076     -0.058014869    0.094255078   -0.038514838    32.752838      38.139846      33.397787      2              41720.121      1.2413341      1968.3653      1721.2703     -2078.6115      158.01696           4356        7128       10809        2904 
   4944000  -2595.9055      3672.1017      296.34689      1076.1962     -210.287       -906.41513      337.68522     -3275.4889      218.55829      0.094291479   -0.057267694    0.09888       -0.034789649   -34.214386      331.8905      -22.143892     -8.697239       150.21947      8.5734223     -0.058972911    0.094291479   -0.035409221    32.721474      38.141234      33.501669      2              41811.337      1.238626       2004.9671      1733.1095     -2138.6072      159.69298           4356        7128       10809        2904 
   4946000  -2580.017       3779.7978      305.03821      1199.7808     -186.45536      617.24697     -540.80293     -1020.1502      3412.694       0.094327879   -0.057208551    0.09892       -0.033937428    54.79905       103.3689      -345.78912     -27.609288      219.24225      39.612359     -0.058910178    0.094327879   -0.034526672    32.723527      38.142623      33.531249      2              41852.402      1.2374107      1995.1129      1728.3259     -2102.6119      159.01634           4356        7128       10809        2904 
   4948000  -2603.9448      3644.7221      294.13729      1040.7773     -231.45244     -2167.8247     -935.74276     -3870.7434     -1696.9879      0.094364278   -0.057208499    0.09896       -0.037954092    94.811561      392.20048      171.94468      26.651535      174.6765       71.753313     -0.058910123    0.094364278   -0.038693108    32.723529      38.144011      33.391834      2              41679.909      1.2425317      1993.6363      1680.3959     -2061.2942      156.97647           4356        7128       10809        2904 
   4950000  -2594.0052      3711.7473      299.54638      1117.7421     -214.57189     -640.80357      658.08448     -3880.1918      1299.6966      0.094400675   -0.05747275     0.099         -0.041327522   -66.676745      393.1641      -131.68807     -18.470206      129.72161     -57.363242     -0.059190447    0.094400675   -0.042205787    32.714357      38.145399      33.274745      2              41523.628      1.2472082      1969.6946      1718.748      -2109.5176      156.23158           4356        7128       10809        2904 
   4952000  -2555.1036      3718.1588      300.06381      1163.0552     -190.94262      929.36004      312.3013      -779.27705      3255.0559      0.094437071   -0.056009496    0.09904       -0.039346802   -31.645004      78.959192     -329.81959      11.451965      128.4502      -40.255375     -0.057639172    0.094437071   -0.040141812    32.765145      38.146788      33.343494      2              41675.535      1.2426621      2034.9089      1707.4114     -2148.6078      160.12998           4356        7128       10809        2904 
   4954000  -2615.862       3619.4378      292.0968       1003.5759     -247.18761     -1920.4466     -1445.193      -1241.6879     -3074.459       0.094473466   -0.056208801    0.09908       -0.03889087     146.43403      125.81388      311.51942     -1.2667461      259.77066      41.808969     -0.057850325    0.094473466   -0.039667318    32.758228      38.148176      33.359319      2              41688.028      1.2422897      1998.6103      1704.6983     -2086.6202      154.03941           4356        7128       10809        2904 
   4956000  -2569.7905      3705.9557      299.07898      1136.1652     -157.11392      405.2569       1704.2191     -177.12684     -311.32159      0.09450986    -0.0570109      0.09912       -0.038734961   -172.67727      17.95007       31.547356     -18.394982      144.99052     -34.281734     -0.058700555    0.09450986    -0.039505113    32.730387      38.149564      33.364731      2              41660.872      1.2430995      2031.7348      1756.9658     -2173.6135      147.09088           4356        7128       10809        2904 
   4958000  -2601.0987      3726.7357      300.75598      1125.637      -148.46579     -710.56377      83.469579     -2960.0435      744.88259      0.094546252   -0.056049746    0.09916       -0.037373518   -8.4604739      299.92356     -75.478238     -6.7081675      174.10592     -3.3172581     -0.057681812    0.094546252   -0.038089812    32.763748      38.150953      33.411985      2              41763.919      1.2400323      2045.3091      1703.2492     -2142.3567      153.03226           4356        7128       10809        2904 
   4960000  -2662.5058      3574.1084      288.43861      911.60258     -233.07092     -2170.3972     -60.67542      -4002.0789     -2448.4372      0.094582642   -0.053314124    0.0992        -0.035030221    6.1434646      405.50632      248.0836      -1.2632727      165.66613     -2.1519404     -0.054787945    0.094582642   -0.035658495    32.8587        38.152341      33.493319      2              41988.441      1.2334016      1945.3006      1678.6272     -2081.5466      155.79781           4356        7128       10809        2904 
   4962000  -2609.2667      3642.5338      293.96069      1033.267      -127.37689      262.34772      1174.1709     -2948.3491      2561.2213      0.094619032   -0.052454364    0.09924       -0.035363263   -118.96843      298.74576     -259.51152      14.26692       167.60193      43.255405     -0.053880179    0.094619032   -0.036003687    32.888541      38.15373       33.481759      2              42013.598      1.232663       1932.3859      1711.9067     -2115.0062      155.33333           4356        7128       10809        2904 
   4964000  -2590.007       3732.9934      301.26098      1142.9863     -168.74238     -1365.1497     -1871.2273     -1961.1437     -263.07806      0.09465542    -0.052781094    0.09928       -0.036177703    189.6035       198.71429      26.657799      30.861527      145.48754     -7.7986507     -0.054225055    0.09465542    -0.03684834     32.877201      38.155118      33.453491      2              41965.179      1.2340853      2000.8821      1707.4847     -2123.8351      156.38463           4356        7128       10809        2904 
   4966000  -2597.0618      3722.489       300.41326      1125.4272     -187.07887     -1497.9769     -866.58387     -2800.518      -826.82879      0.094691807   -0.054891403    0.09932       -0.038182233    87.801439      283.75711      83.773353     -37.84081       158.91769     -30.404521     -0.056455441    0.094691807   -0.038930277    32.803953      38.156506      33.383915      2              41786.121      1.2393734      2041.3924      1702.1493     -2139.0796      164.72499           4356        7128       10809        2904 
   4968000  -2672.6958      3673.7297      296.47827      1001.0339     -149.15847      1486.6585      1608.2335      487.24347      2364.4986      0.094728192   -0.054073533    0.09936       -0.037644209   -162.95248     -49.368283     -239.58106     -13.291487      207.75632     -14.013221     -0.055590443    0.094728192   -0.038371052    32.832341      38.157895      33.40259       2              41847.199      1.2375645      2008.3848      1758.7961     -2236.2418      152.5915            4356        7128       10809        2904 
   4970000  -2535.2502      3683.4326      297.26132      1148.1825     -185.24083     -369.05424      188.92478      745.67795     -2041.7655      0.094764576   -0.051630285    0.0994        -0.036196099   -19.14149      -75.554473      206.88325      7.942441       236.35409      16.256293     -0.053010858    0.094764576   -0.036867427    32.917144      38.159283      33.452852      2              42019.948      1.2324768      2048.7853      1782.9465     -2158.2195      156.03781           4356        7128       10809        2904 
   4972000  -2594.1266      3689.5717      297.75676      1095.4451     -142.49705      622.34881      510.71277      712.84558      643.48809      0.094800959   -0.051678637    0.09944       -0.037126224   -51.750991     -72.232223     -65.204418      28.922639      200.70967      19.172551     -0.053061844    0.094800959   -0.037832949    32.915466      38.160671      33.420568      2              41978.783      1.2336853      1974.5001      1724.5795     -2107.0662      159.7292            4356        7128       10809        2904 
   4974000  -2687.4321      3639.029       293.67785      951.59697     -181.87214      25.883292      1806.7754     -1556.8094     -172.31614      0.094837341   -0.054271968    0.09948       -0.038767598   -183.07788      157.73705      17.453524      30.013422      126.03396     -0.83344297    -0.055800244    0.094837341   -0.039539066    32.825454      38.16206       33.363598      2              41794.142      1.2391356      1975.4867      1687.3844     -2113.275       155.38458           4356        7128       10809        2904 
   4976000  -2628.2086      3662.8576      295.60087      1034.649      -226.30015     -1443.4188     -1281.177      -2486.5459     -562.53356      0.094873721   -0.05854795     0.09952       -0.040353116    129.82104      251.95486      57.004385     -11.109176      151.2411      -18.387181     -0.060331862    0.094873721   -0.041189892    32.677038      38.163448      33.308566      2              41538.061      1.2467748      1982.3333      1701.7605     -2107.1642      156.95628           4356        7128       10809        2904 
   4978000  -2617.2197      3718.1085      300.05974      1100.8888     -181.71392     -1486.5392     -493.1921      -1995.4883     -1970.9373      0.0949101     -0.059878589    0.09956       -0.037620836    49.972505      202.19265      199.70503     -57.57579       125.20295     -63.389824     -0.061746251    0.0949101     -0.038346765    32.630852      38.164837      33.403401      2              41598.964      1.2449495      1982.2889      1679.1159     -2052.6516      153.5612            4356        7128       10809        2904 
   4980000  -2601.8402      3735.1342      301.43375      1133.294      -210.45571     -3274.7511     -4927.4467     -1576.517      -3320.2896      0.094946477   -0.058968868    0.0996        -0.030923962    499.275        159.74205      336.42982     -8.1584608      139.47646      11.636762     -0.060779056    0.094946477   -0.031412199    32.662428      38.166225      33.635844      2              41930.496      1.235106       1964.0698      1744.4056     -2114.4148      149.51525           4356        7128       10809        2904 
   4982000  -2467.1676      3700.4112      298.63153      1233.2436     -169.8993      -2566.4764     -812.90023     -3985.1238     -2901.405       0.094982854   -0.058250838    0.09964       -0.028411837    82.369189      403.79481      293.98691     -8.8943816      226.10913      67.731924     -0.060016322    0.094982854   -0.028823265    32.68735       38.167613      33.723038      2              42072.799      1.2309285      1982.0522      1740.0303     -2033.0689      148.3999            4356        7128       10809        2904 
   4984000  -2546.1713      3675.9625      296.65846      1129.7912     -173.4753      -1347.7229     -3071.5635     -2182.4887      1210.8834      0.095019228   -0.05790129     0.09968       -0.029666625    311.22018      221.13453     -122.69874      36.878278      199.98521     -16.088624     -0.059645222    0.095019228   -0.030115581    32.699483      38.169002      33.679485      2              42035.588      1.2320182      1955.0039      1716.2319     -2083.6893      164.59973           4356        7128       10809        2904 
   4986000  -2584.0458      3656.755       295.10838      1072.7092     -177.49371     -156.09919      15.394975     -446.8979      -36.794655      0.095055602   -0.058293668    0.09972       -0.027698152   -1.5581115      45.283696      3.7301498      5.0053433      153.5688       13.387045     -0.060061802    0.095055602   -0.028088979    32.685864      38.17039       33.747809      2              42104.852      1.2299915      1984.1184      1734.723      -2109.053       161.12294           4356        7128       10809        2904 
   4988000  -2517.0698      3747.9188      302.4655       1230.849      -168.63279     -625.89502      562.34413     -848.29206     -1591.7371      0.095091974   -0.059347687    0.09976       -0.029103726   -56.973665      85.95876       161.2885      -10.42124       187.16994      35.596038     -0.061181694    0.095091974   -0.02953564     32.64928       38.171778      33.699023      2              41998.454      1.2331075      2005.1242      1777.0077     -2133.5737      163.04338           4356        7128       10809        2904 
   4990000  -2647.4107      3733.0753      301.2676       1085.6646     -125.25212      613.658        1701.9582     -245.44239      384.45824      0.095128345   -0.060736281    0.0998        -0.033516576   -172.454        24.86639      -38.958434      17.641584      112.60001      5.4872834     -0.062658988    0.095128345   -0.034091131    32.601083      38.173167      33.545856      2              41747.367      1.2405239      1922.5461      1702.5        -2123.6134      150.31603           4356        7128       10809        2904 
   4992000  -2590.4107      3693.6962      298.08962      1103.2855     -190.77983     -917.51229     -502.38906     -2415.8301      165.68228      0.095164715   -0.061912566    0.09984       -0.036136539    50.906716      244.78615     -16.785581     -40.670113      87.402122     -63.744375     -0.063912121    0.095164715   -0.036805632    32.560255      38.174555      33.45492       2              41583.57       1.2454104      1984.0645      1700.106      -2064.1252      159.7373            4356        7128       10809        2904 
   4994000  -2564.8942      3721.5315      300.33598      1156.6373     -154.26398      2589.8043      2169.9525     -184.36763      5783.8281      0.095201083   -0.06056604     0.09988       -0.035113367   -219.87235      18.679127     -586.04818     -42.648672      114.3866      -38.589554     -0.062477756    0.095201083   -0.035744663    32.606991      38.175943      33.490433      2              41688.98       1.2422614      2005.6004      1731.5409     -2152.0789      158.67969           4356        7128       10809        2904 
   4996000  -2655.7223      3655.3999      294.99902      999.67756     -158.8988      -1425.9926     -310.62075     -4634.8182      667.46117      0.09523745    -0.057368981    0.09992       -0.031661287    31.472142      469.6215      -67.631967      37.464554      170.17838      48.297978     -0.059080357    0.09523745    -0.032173343    32.717959      38.177332      33.610252      2              41982.04       1.2335896      2005.7905      1702.3098     -2143.2372      147.71438           4356        7128       10809        2904 
   4998000  -2569.1101      3670.6918      296.23311      1101.5817     -135.86569      221.49881      578.66641     -739.55036      825.38036      0.095273816   -0.054417745    0.09996       -0.029748427   -58.631117      74.937177     -83.629354     -6.0844157      199.4283      -18.204169     -0.055954398    0.095273816   -0.030199888    32.820394      38.17872       33.676646      2              42198.206      1.2272704      1994.3843      1699.2973     -2100.2645      155.51609           4356        7128       10809        2904 
   5000000  -2546.6535      3682.4608      297.18289      1135.8073     -186.78158     -151.10611      1620.8762     -307.55778     -1766.6368      0.09531018    -0.052223352    0.1           -0.028466385   -164.23509      31.163481      179.00466      37.841921      206.45838      22.566097     -0.053636408    0.09531018    -0.028879409    32.896559      38.180109      33.721144      2              42353.562      1.2227687      1992.4491      1768.175      -2097.0211      149.89955           4356        7128       10809        2904 
Loop time of 26687.7 on 16 procs for 5000000 steps with 4158 atoms

Performance: 1.619 ns/day, 14.826 hours/ns, 187.352 timesteps/s, 779.011 katom-step/s
98.9% CPU use with 16 MPI tasks x no OpenMP threads

MPI task timing breakdown:
Section |  min time  |  avg time  |  max time  |%varavg| %total
---------------------------------------------------------------
Pair    | 13994      | 15713      | 16901      | 619.5 | 58.88
Bond    | 4832.8     | 5416.8     | 6067.7     | 508.8 | 20.30
Kspace  | 2065.9     | 3379.4     | 5155.4     |1756.8 | 12.66
Neigh   | 119.24     | 119.32     | 119.37     |   0.4 |  0.45
Comm    | 970.75     | 977.55     | 984.23     |  13.3 |  3.66
Output  | 1.1559     | 1.2003     | 1.2769     |   2.8 |  0.00
Modify  | 669.68     | 842.05     | 993.59     | 386.7 |  3.16
Other   |            | 238.9      |            |       |  0.90

Nlocal:        259.875 ave         280 max         243 min
Histogram: 4 0 1 2 2 2 1 2 0 2
Nghost:        7215.06 ave        7285 max        7150 min
Histogram: 1 3 1 1 3 2 0 3 1 1
Neighs:         146512 ave      160567 max      131783 min
Histogram: 3 1 2 1 1 1 1 1 1 4

Total # of neighbors = 2344191
Ave neighs/atom = 563.7785
Ave special neighs/atom = 5.5238095
Neighbor list builds = 23158
Dangerous builds = 0

#-------------------Wrap up-------------------
write_restart   ${myid}.restart
write_restart   tensile_TP_4k_H2O_bonded_rlxed_erate_2e8_r3.restart
System init for write_restart ...
PPPM initialization ...
  using 12-bit tables for long-range coulomb (../kspace.cpp:342)
  G vector (1/distance) = 0.19361806
  grid = 10 12 10
  stencil order = 5
  estimated absolute RMS force accuracy = 0.023924915
  estimated relative force accuracy = 7.2049172e-05
  using double precision KISS FFT
  3d grid and FFT values/proc = 880 90
Generated 36 of 36 mixed pair_coeff terms from sixthpower/sixthpower mixing rule
write_data      ${myid}.data
write_data      tensile_TP_4k_H2O_bonded_rlxed_erate_2e8_r3.data
System init for write_data ...
PPPM initialization ...
  using 12-bit tables for long-range coulomb (../kspace.cpp:342)
  G vector (1/distance) = 0.19361806
  grid = 10 12 10
  stencil order = 5
  estimated absolute RMS force accuracy = 0.023924915
  estimated relative force accuracy = 7.2049172e-05
  using double precision KISS FFT
  3d grid and FFT values/proc = 880 90
Generated 36 of 36 mixed pair_coeff terms from sixthpower/sixthpower mixing rule
Total wall time: 7:24:47
