LAMMPS data file via write_data, version 2 Aug 2023, timestep = 150000, units = real

4158 atoms
9 atom types
4356 bonds
8 bond types
7128 angles
12 angle types
10809 dihedrals
14 dihedral types
2904 impropers
7 improper types

-17.354594804924822 17.354594804924822 xlo xhi
-17.354594804924822 17.354594804924822 ylo yhi
-17.354594804924822 17.354594804924822 zlo zhi

Masses

1 12.01115
2 12.01115
3 12.01115
4 12.01115
5 1.00797
6 1.00797
7 1.00797
8 15.9994
9 15.9994

Pair Coeffs # lj/class2/coul/long

1 0.054 4.01
2 0.054 4.01
3 0.064 4.01
4 0.064 4.01
5 0.02 2.3
6 0.013 1.098
7 0.013 1.098
8 0.26 3.61
9 0.24 3.535

Bond Coeffs # class2

1 1.501 321.902 -521.821 572.163
2 1.101 345 -691.89 844.6
3 1.42 400.395 -835.195 1313.01
4 1.417 470.836 -627.618 1327.63
5 1.0982 372.825 -803.453 894.317
6 1.3768 428.88 -738.235 1114.97
7 0.965 532.506 -1282.9 2004.77
8 0.97 563.28 -1428.22 1902.12

Angle Coeffs # class2

1 120.05 44.7148 -22.7352 0
2 105.8 52.7061 -12.109 -9.8681
3 111 44.3234 -9.4454 0
4 111 44.3234 -9.4454 0
5 110.5 46 0 0
6 118.9 61.0226 -34.9931 0
7 117.94 35.1558 -12.4682 0
8 123.42 73.6781 -21.6787 0
9 108.19 53.125 -8.5016 0
10 107.66 39.641 -12.921 -2.4318
11 108.728 58.5446 -10.8088 -12.4006
12 103.7 49.84 -11.6 -8

BondBond Coeffs

1 12.0676 1.501 1.417
2 -9.6879 1.42 0.965
3 0 1.501 1.501
4 2.9168 1.501 1.101
5 0 1.501 1.42
6 68.2856 1.417 1.417
7 1.0795 1.417 1.0982
8 48.4754 1.417 1.3768
9 20.6577 1.3768 0.965
10 5.3316 1.101 1.101
11 23.1979 1.101 1.42
12 -9.5 0.97 0.97

BondAngle Coeffs

1 47.0579 31.0771 1.501 1.417
2 28.58 18.9277 1.42 0.965
3 0 0 1.501 1.501
4 26.4608 11.7717 1.501 1.101
5 0 0 1.501 1.42
6 28.8708 28.8708 1.417 1.417
7 20.0033 24.2183 1.417 1.0982
8 58.479 107.681 1.417 1.3768
9 53.8614 23.9224 1.3768 0.965
10 18.103 18.103 1.101 1.101
11 4.6189 55.327 1.101 1.42
12 22.35 22.35 0.97 0.97

Dihedral Coeffs # class2

1 0 0 4.4072 0 0 0
2 0 0 1.559 0 0 0
3 0 0 3 0 0 0
4 -0.2802 0 -0.0678 0 -0.0122 0
5 0 0 0 0 0.13 0
6 8.3667 0 1.1932 0 0 0
7 0 0 3.9661 0 0 0
8 0 0 4.8498 0 0 0
9 -0.69 0 0.5097 0 0.0095 0
10 -0.2801 0 -0.0678 0 -0.0122 0
11 0.1863 0 -0.4338 0 -0.2121 0
12 0 0 1.8769 0 0 0
13 0 0 1.7234 0 0 0
14 0 0 0 0 0 0

AngleAngleTorsion Coeffs

1 -14.4097 120.05 118.9
2 4.4444 120.05 117.94
3 0 120.05 123.42
4 0 111 120.05
5 0 110.5 105.8
6 0 118.9 118.9
7 -4.8141 118.9 117.94
8 -21.0247 118.9 123.42
9 -4.6072 123.42 108.19
10 -5.8888 111 120.05
11 -10.5093 108.728 105.8
12 0.3598 117.94 117.94
13 4.2296 117.94 123.42
14 0 110.5 120.05

EndBondTorsion Coeffs

1 0 0.2421 0 0 -0.6918 0 1.501 1.417
2 0 -1.797 0 0 -0.4879 0 1.501 1.0982
3 0 0 0 0 0 0 1.501 1.3768
4 0 0 0 0 0 0 1.501 1.417
5 0 0 0 0 0 0 1.501 0.965
6 -0.1185 6.3204 0 -0.1185 6.3204 0 1.417 1.417
7 0 -6.8958 0 0 -0.4669 0 1.417 1.0982
8 0 0.2655 0 0 4.8905 0 1.417 1.3768
9 0.9 -1.3456 1.19 3.4132 0.5873 -0.1323 1.417 0.965
10 1.3997 0.7756 0 -0.5835 1.122 0.3978 1.101 1.417
11 -1.7554 1.3145 0.2263 0.2493 0.6803 0 1.101 0.965
12 0 -0.689 0 0 -0.689 0 1.0982 1.0982
13 0 -1.5867 0 0 4.2641 0 1.0982 1.3768
14 0 0 0 0 0 0 1.42 1.417

MiddleBondTorsion Coeffs

1 0 9.1792 0 1.417
2 0 3.9421 0 1.417
3 0 0 0 1.417
4 0 0 0 1.501
5 0 0 0 1.42
6 27.5989 -2.312 0 1.417
7 0 -1.1521 0 1.417
8 0 4.8255 0 1.417
9 1.158 3.2697 3.5132 1.3768
10 -5.5679 1.4083 0.301 1.501
11 0 0.9241 -0.5889 1.42
12 0 4.8228 0 1.417
13 0 5.5432 0 1.417
14 0 0 0 1.501

BondBond13 Coeffs

1 2.5085 1.501 1.417
2 0.8743 1.501 1.0982
3 0 1.501 1.3768
4 0 1.501 1.417
5 0 1.501 0.965
6 53 1.417 1.417
7 -6.2741 1.417 1.0982
8 -2.2436 1.417 1.3768
9 1.159 1.417 0.965
10 -3.4826 1.101 1.417
11 0 1.101 0.965
12 -1.7077 1.0982 1.0982
13 2.0517 1.0982 1.3768
14 0 1.42 1.417

AngleTorsion Coeffs

1 0 -4.4683 0 0 3.8987 0 120.05 118.9
2 0 -0.1242 0 0 3.4601 0 120.05 117.94
3 0 0 0 0 0 0 120.05 123.42
4 0 0 0 0 0 0 111 120.05
5 0 0 0 0 0 0 110.5 105.8
6 1.9767 1.0239 0 1.9767 1.0239 0 118.9 118.9
7 0 2.5014 0 0 2.7147 0 118.9 117.94
8 0 10.0155 0 0 1.7404 0 118.9 123.42
9 -5.136 -1.0122 0 4.6852 0.023 -0.598 123.42 108.19
10 4.6266 0.1632 0.0461 0.2251 0.6548 0.1237 111 120.05
11 -3.406 1.6396 0.0737 0 -0.281 -0.5944 108.728 105.8
12 0 2.4501 0 0 2.4501 0 117.94 117.94
13 0 1.8729 0 0 2.5706 0 117.94 123.42
14 0 0 0 0 0 0 110.5 120.05

Improper Coeffs # class2

1 7.8153 0
2 4.8912 0
3 13.0421 0
4 0 0
5 0 0
6 0 0
7 0 0

AngleAngle Coeffs

1 0 0 0 120.05 118.9 120.05
2 0 0 0 118.9 117.94 117.94
3 0 0 0 118.9 123.42 123.42
4 0 0 0 111 111 111
5 2.3794 3.0118 2.3794 111 111 107.66
6 0 0 0 111 108.728 110.5
7 2.4259 2.4259 2.1283 107.66 108.728 108.728

Atoms # full

493 1 5 0.053 -14.841475309016534 -9.618654999610484 -15.952379707742082 5 5 -6
2394 1 5 0.1268 -9.65186505121072 -9.602820039226938 -16.088651680886937 4 4 -6
473 1 1 -0.106 -15.850017075910094 -9.50974510647961 -16.535296805538714 5 5 -6
455 1 3 0 -16.149476604101125 -10.86353852549072 -17.198002542686925 5 5 -6
2376 1 3 -0.1268 -9.1446896416555 -10.530811292975862 -16.393516482247865 4 4 -6
2375 1 3 0 -9.944395504958361 -11.416432500927858 -17.140325617637657 4 4 -6
2398 1 5 0.053 -11.861259236612122 -10.884396907046778 -16.34026877863584 4 4 -6
479 1 5 0.1268 -15.859245958939226 -11.945111559557482 -15.402953928240361 5 5 -6
3664 1 5 0.053 -15.430289884150305 -13.493908451008291 -11.239858767413937 2 6 -3
402 1 3 0.0265 -9.493896208564355 -12.795969053180322 -12.510091897603402 2 4 -4
401 1 3 0 -10.71631181211978 -13.044601816027829 -13.132259331390054 2 4 -4
449 1 5 0.053 -11.55282183728454 -13.000389402018552 -15.1204414163842 2 4 -4
448 1 5 0.053 -9.76389252298765 -13.537280892864128 -14.964675351829504 2 4 -4
427 1 1 -0.106 -10.808675708890702 -13.58434444999443 -14.562904501875304 2 4 -4
406 1 3 -0.1268 -11.83627740382612 -12.784251742345965 -12.412758212057685 2 4 -4
430 1 5 0.1268 -12.781434618814153 -13.03959626567365 -12.842202381492362 2 4 -4
403 1 3 0 -9.469933274151646 -12.207569355258983 -11.235933221895902 2 4 -4
414 1 3 -0.1268 -8.618777507025982 -9.049857998330827 -10.471725904111931 2 4 -4
405 1 3 0 -11.83883938361797 -12.499989492333576 -11.006373858602512 2 4 -4
454 1 3 -0.1268 -16.06218854437237 -12.043605625249228 -16.47080224015309 5 5 -6
3234 1 3 0 -11.352238624637891 -15.0197861412133 -14.614758005865518 2 5 -5
3259 1 5 0.1268 -10.548496530805462 -15.16800523318311 -16.58420140248274 2 5 -5
404 1 3 -0.1268 -10.615067077227302 -12.205682876751478 -10.505311895172614 2 4 -4
3260 1 5 0.1268 -12.381141995979686 -15.046176812756675 -12.787529945951189 2 5 -5
488 1 5 0.053 -16.028196778810912 -14.84241945418925 -15.666908466791226 5 5 -6
453 1 3 -0.1268 -16.519116094218333 -13.205982758028782 -17.003965906107023 5 5 -6
443 1 5 0.053 -13.649164638932442 -11.46716050249391 -10.810863455777426 2 4 -4
485 1 5 0.1268 -15.950496427953327 -14.498889973483339 -13.386498216064519 5 5 -6
413 1 3 0 -8.546473355239133 -10.26369821204554 -9.82525809591535 2 4 -4
470 1 1 -0.106 -16.894308840158985 -14.284519951295445 -15.903154318682734 5 5 -6
3325 87 7 0.41 -9.885902394708676 -16.224137951036557 -12.207715039290587 3 6 -5
3239 1 3 -0.1268 -12.1606714492229 -15.591346699984605 -13.670715892196702 2 5 -5
3235 1 3 -0.1268 -11.144714447377247 -15.756253236812945 -15.819307886560063 2 5 -5
423 1 1 -0.106 -13.119300399471083 -12.257546840526826 -10.238603130042819 2 4 -4
3266 1 5 0.1268 -13.62480077924437 -15.679168370175455 -10.5133427814472 2 5 -5
442 1 5 0.053 -13.8341807387602 -13.10526614016057 -10.127604531137536 2 4 -4
429 1 5 0.1268 -10.64061809963394 -11.862176184672936 -9.474660664695506 2 4 -4
2041 1 5 0.053 -0.39236551945639775 -8.534418869967338 -15.834871672640178 3 5 -5
3246 1 3 -0.1268 -12.939381176419223 -16.478438647547662 -10.34991584106297 2 5 -5
3238 1 3 0 -12.617101624822459 -16.88334828226438 -13.78038625508426 2 5 -5
4098 1 5 0.1268 -6.923612621182199 -6.073814405155101 -11.586781381638412 1 5 -3
1352 1 5 0.1268 -2.5499779373850746 -6.107230530286758 -14.666104804970772 3 4 -5
234 16 7 0.41 -7.921002374737061 -15.477739384964732 -11.572728652485454 3 5 -5
3258 27 7 0.41 -8.729981290853358 -1.4149604962844933 -16.223742477187514 2 6 -6
3236 1 3 0 -11.604371356594342 -17.04178925662639 -15.982690141036828 2 5 -5
4073 1 1 -0.106 -6.2199766960129725 -0.5266102381238298 -14.013909272144215 1 5 -3
2116 1 5 0.1268 -12.720466986187127 -0.018897514597099985 -13.297021628366654 1 5 -3
1798 1 9 -0.4506 -13.859202249137109 -2.687362433792323 -16.798101176293315 1 5 -3
431 1 5 0.1268 -12.205441524842476 -9.83807186463315 -9.146418394398957 2 4 -4
464 1 3 -0.1268 -16.87469396081009 -13.933601151538129 -13.412078451271341 5 5 -6
457 1 3 0 -16.908678311867575 -9.010846188696725 -15.633872976035528 5 5 -6
3697 1 5 0.1268 -15.074340011795098 -4.9094927388006635 -16.872295938896105 5 5 -6
4072 1 3 -0.1268 -4.910535695320879 -4.372363674666346 -12.410589600770596 1 5 -3
4067 1 3 0 -4.458380992429035 -3.1620163723690844 -11.84434187345473 1 5 -3
1353 1 5 0.1268 -1.5233651744785668 -13.635866642596676 -15.97475570561415 3 4 -5
3622 1 3 0 -17.196850199664368 -10.57124582774597 -8.784265327267512 2 6 -3
3268 1 5 0.053 -14.316338073346678 -16.754578855571538 -12.52954070595868 2 5 -5
3247 1 3 0 -12.134281567904162 -16.48337929156072 -9.207648658631655 2 5 -5
4002 1 5 0.1268 -0.7031792461466431 -12.600110339408703 -9.698024214627775 3 5 -5
3303 87 8 -0.82 -9.181262771066011 -16.54761757657405 -12.784305897382332 3 6 -5
1330 1 3 0 -3.0073396680573126 -8.280463593265095 -14.669765745772931 3 4 -5
2606 1 9 -0.4506 -2.2747989431750444 -1.7132340404650463 -16.47202294459769 3 5 -5
989 1 5 0.053 -2.319299121565054 -16.858319244645067 -9.412390059374202 3 5 -5
3597 56 8 -0.82 -5.410365653593155 -15.23610402345584 -9.020036760378217 4 5 -5
3663 1 5 0.053 -16.482414598549546 -14.635077738958188 -10.789846076818783 2 6 -3
4082 1 1 -0.106 -6.074682379590071 -5.681492787476502 -14.219593189672045 1 5 -3
3321 1 5 0.053 -0.11001428701559135 -10.454981997319013 -8.964633447234121 3 4 -6
407 1 3 0 -12.82430643941531 -11.961090087624926 -8.792370254116076 2 4 -4
424 1 9 -0.4506 -8.235162588386615 -12.984323057790647 -13.04396941349626 2 4 -4
444 1 6 0.4241 -8.270219911141497 -12.63928314781755 -13.956531570219736 2 4 -4
420 1 1 -0.106 -8.19480068088204 -11.506301542897555 -10.618887702905162 2 4 -4
896 1 5 0.053 -9.112065878686831 -0.19782226502987754 -13.39581927148091 2 5 -3
247 14 7 0.41 -8.439035305159491 -16.09182121200458 -16.10966525401396 5 5 -7
926 54 8 -0.82 -5.446203605270721 -12.17037493531618 -9.010619505221449 2 5 -2
3619 56 7 0.41 -5.858794918107797 -15.10385261324835 -9.884081715931178 4 5 -5
3624 1 3 0 -16.866913429635016 -12.712281638140738 -9.785890568807554 2 6 -3
476 29 8 -0.82 -2.0410978250361786 -7.838287884238261 -9.525524823775967 5 5 -4
1343 1 3 -0.1268 -3.3443706827943096 -9.899862474921997 -17.160434640595014 3 4 -5
437 1 5 0.053 -7.513278816703471 -12.25807862103289 -10.038291045782616 2 4 -4
1550 16 7 0.41 -7.414658413312663 -14.154796593959212 -11.665487325310252 3 5 -5
1530 16 8 -0.82 -7.449367713288554 -14.817883748644965 -10.958651044853585 3 5 -5
960 1 3 0.0265 -3.6346766072014702 -15.98697204350686 -11.427026503367081 3 5 -5
2377 1 3 -0.1268 -7.769597930485098 -10.69590135789722 -16.21100224527066 4 4 -6
438 1 5 0.053 -7.5681217418991835 -11.20703322976171 -11.544435804312869 2 4 -4
2395 1 5 0.1268 -7.171528029520767 -9.94531307145736 -15.647073545399651 4 4 -6
1727 1 6 0.4241 -6.276483974247302 -15.094814547582128 -15.976567982611957 3 5 -6
1354 1 5 0.1268 -3.6014629787748422 -14.821039200533379 -15.21906184164079 3 4 -5
1708 1 9 -0.4506 -5.7222300800626655 -14.820393445143083 -16.76563794038974 3 5 -6
996 1 5 0.053 -5.819314613355182 -14.285880550025613 -13.589380047769565 3 5 -5
1333 1 3 -0.1268 -3.1826045456868357 -14.02743822335367 -14.632882306144262 3 4 -5
1334 1 3 0 -3.7533654080767676 -13.678164912952813 -13.408899378763959 3 4 -5
1356 1 5 0.1268 -3.6415249514666534 -12.210938441367219 -11.83885018219711 3 4 -5
1717 1 5 0.1268 -5.296634321879512 -17.07825084848417 -15.885676268752347 3 5 -6
1351 1 5 0.1268 -3.1972784580744893 -10.370152708690531 -14.193906652016786 3 4 -5
1329 1 3 -0.1268 -2.7241161062613575 -9.428694347785935 -13.921234097933127 3 4 -5
1360 1 5 0.1268 -3.2798122092418716 -10.631376253567113 -16.362044638731707 3 4 -5
1328 1 3 -0.1268 -1.7154403321761045 -9.444213103021568 -12.98884362769354 3 4 -5
2378 1 3 0.0265 -7.187806251137236 -11.757423227508758 -16.8599075850758 4 4 -6
2383 1 9 -0.4506 -5.8436641962427025 -12.045184492214048 -16.711268565323035 4 4 -6
1336 1 3 0 -2.0402112632267073 -11.945960064172958 -13.116249980149458 3 4 -5
1337 1 3 0.0265 -1.4254708720030091 -12.372939494865417 -14.300152190627072 3 4 -5
1335 1 3 -0.1268 -3.1622918055274543 -12.606760613917723 -12.741148750692854 3 4 -5
1344 1 1 -0.106 -1.4650777584526775 -10.786745432745054 -12.34726004575311 3 4 -5
1332 1 3 -0.1268 -2.0480486192884637 -13.353408072271986 -15.071561476213818 3 4 -5
995 1 5 0.053 -5.42915430436188 -13.713500568787174 -11.981219597374086 3 5 -5
1362 1 5 0.053 -1.794071702939867 -10.877334642472011 -11.307762982314749 3 4 -5
975 1 1 -0.106 -4.9994881721570845 -14.268104434294195 -12.842009616256934 3 5 -5
991 1 6 0.4241 -2.2960247590849345 -14.638986695343494 -11.17981637838489 3 5 -5
972 1 9 -0.4506 -3.0302174220374773 -15.009812947968143 -10.655976542253049 3 5 -5
2264 1 5 0.053 -1.288611273814226 -15.182726336228185 -16.76870721548203 2 5 -6
961 1 3 0 -4.635110502080689 -15.660410909773658 -12.392685816222382 3 5 -5
962 1 3 -0.1268 -5.364776282656576 -16.68778714268923 -12.99796839926383 3 5 -5
1361 1 5 0.053 -0.4401064217713824 -10.92070531133492 -12.31144176572161 3 4 -5
226 14 8 -0.82 -7.86595736309245 -15.73392214207021 -15.459695208487553 5 5 -7
982 1 5 0.1268 -6.238808469240997 -16.41603086249392 -13.66569359537964 3 5 -5
2162 29 7 0.41 -1.5304167780466624 -8.088001973092643 -10.295883247823195 4 5 -3
1807 1 5 0.1268 -11.912346120731865 -0.8963220378056178 -16.721334837403546 1 5 -3
3017 14 7 0.41 -8.45480082387358 -15.89896582217873 -14.650171310464689 5 5 -7
3993 33 7 0.41 -8.219140677339444 -14.60537928304459 -9.080163205387725 4 6 -4
465 1 3 0 -17.296233893194312 -13.234756284325051 -12.264245762497673 5 5 -6
1700 1 3 -0.1268 -5.4195113712966805 -17.196505624430216 -16.94582863604361 3 5 -6
3643 1 1 -0.106 -16.504663164547352 -13.595624760438596 -10.975300511808925 2 6 -3
2339 1 1 -0.106 -3.620873702523282 -3.131147411313135 -10.581139463189452 1 5 -3
934 56 7 0.41 -4.615741507121607 -14.707389386959996 -9.172009721271175 2 6 -2
433 1 5 0.1268 -8.06913532174589 -8.86778959777824 -11.392911679211796 2 4 -4
3623 1 3 -0.1268 -16.693392398266614 -11.349259410477352 -9.837969709488808 2 6 -3
3649 1 5 0.1268 -16.275113658597512 -10.846140260803963 -10.726726031310664 2 6 -3
4034 1 9 -0.4506 -4.669886126446956 -6.688918573939434 -8.810186008821832 1 5 -3
428 27 8 -0.82 -9.251289853779811 -2.203756589581701 -16.47626200183113 2 5 -5
1817 1 6 0.4241 -12.928499830376378 -2.800361366966328 -16.66722585010777 1 5 -3
1121 1 9 -0.4506 -17.244723485159707 -4.651431511379755 -10.541848069401917 4 4 -6
600 4 7 0.41 -5.159429146279612 -10.291596195323926 -8.849396359924787 3 5 -5
2399 1 5 0.053 -11.767972562642601 -12.382425887115645 -17.163249748147496 4 4 -6
899 1 5 0.053 -15.180747369292778 -7.573568209807455 -9.401863685017258 2 5 -3
482 1 5 0.1268 -16.47193339064476 -6.933771338045949 -15.852209235598334 5 5 -6
856 1 3 -0.1268 -13.712154386638376 -5.597169294161285 -9.099051731370933 2 5 -3
3374 118 7 0.41 -10.588989670997917 -2.641613798270898 -15.126387891152426 1 4 -5
3717 105 7 0.41 -16.53690271697687 -7.439080873272509 -11.839723285381336 6 5 -8
855 1 3 0 -13.009068214854516 -4.386382644595864 -9.001837313250924 2 5 -3
950 55 7 0.41 -15.41310547303757 -5.826261137744426 -12.771454626181589 1 5 -3
928 55 8 -0.82 -15.133639263385504 -6.717885878420077 -13.017704420789556 1 5 -3
3846 55 7 0.41 -14.80430568310748 -6.362415490145805 -13.89296053582207 2 5 -7
2882 118 7 0.41 -11.095591147873826 -3.859943406717173 -14.469886488701519 0 6 -2
3352 118 8 -0.82 -11.440180474173003 -3.1847503160760002 -15.043848984777956 1 4 -5
415 1 3 0 -9.17294241939634 -7.908288501471217 -9.83039586046392 2 4 -4
1136 1 5 0.053 -16.001113344392163 -1.1911167564663039 -9.654901259591547 4 4 -6
4100 1 5 0.1268 -10.53359236263955 -6.966591673399501 -14.929553064303327 1 5 -3
4083 1 9 -0.4506 -11.521926355374479 -6.803386562675662 -12.564733511976517 1 5 -3
4081 1 3 0.0265 -10.16939959111199 -6.558100316858173 -12.842725874123566 1 5 -3
4080 1 3 0 -9.818705531210856 -6.556077378976358 -14.1860811494827 1 5 -3
4086 1 1 -0.106 -9.3038815249518 -6.47048518069699 -10.39049661364362 1 5 -3
4107 1 5 0.053 -10.293976826429525 -6.026804278415826 -10.180979231868537 1 5 -3
4076 1 3 0 -9.070756880246345 -6.410863528866281 -11.865541213149074 1 5 -3
4103 1 6 0.4241 -11.592144359083537 -7.174774726909668 -11.634424517143334 1 5 -3
3301 98 8 -0.82 -14.347538949097 -4.660696503995105 -14.592871788049724 3 4 -7
873 1 1 -0.106 -12.802028861472529 -3.445893407558435 -10.1975809359142 2 5 -3
892 1 5 0.053 -13.684992700862395 -2.8207286151004016 -10.346816434664484 2 5 -3
1940 98 7 0.41 -13.41579142879406 -4.528904327512937 -14.420408190865652 1 5 -4
3322 98 7 0.41 -14.637269070795387 -3.7606762689952777 -14.813608804223428 3 4 -7
2042 1 6 0.4241 -1.4280437929599863 -7.398843293619025 -16.95367315952476 3 5 -5
893 1 5 0.053 -12.67183162593247 -4.020035690790367 -11.151832115524327 2 5 -3
1111 1 3 0 -16.07138938770237 -1.0722320511710421 -11.881674979524828 4 4 -6
1120 1 9 -0.4506 -16.7121982492873 -3.1155151617533523 -13.019177873493469 4 4 -6
1349 1 1 -0.106 -0.40445587317265463 -5.885112179185207 -13.1895908595 3 4 -5
1112 1 3 0.0265 -16.192618039793807 -1.8504266637707243 -13.055606337994885 4 4 -6
882 1 5 0.1268 -12.010352281753793 -1.8970452732264924 -12.380260707527974 2 5 -3
1815 1 5 0.053 -16.916456154745664 -1.7326999388098816 -16.970377650434934 1 5 -3
861 1 3 0 -10.133310543900869 -1.0781243654038306 -11.665801749291044 2 5 -3
895 1 5 0.053 -10.627711602217472 -1.047254609425547 -13.721475547945461 2 5 -3
875 1 1 -0.106 -10.116147049845772 -0.4005129039078561 -12.989868056858139 2 5 -3
3038 1 3 -0.1268 -0.021431942290231376 -0.42527771466672704 -13.350817557079896 4 4 -5
4093 1 5 0.1268 -4.7252637349622795 -5.32462455427652 -11.835062687124331 1 5 -3
1107 1 3 -0.1268 -15.699814624919991 -1.3372886104778168 -14.216432727109055 4 4 -6
862 1 3 -0.1268 -11.302349119904843 -1.7770633020995543 -11.533098876433941 2 5 -3
1128 1 5 0.1268 -15.997105094976288 -1.927316193456896 -15.175843892825428 4 4 -6
860 1 3 0.0265 -9.20572892734921 -0.9624897852522238 -10.660365436601788 2 5 -3
857 1 3 0 -11.611594995226909 -2.4320145440362193 -10.333135592421968 2 5 -3
1119 1 1 -0.106 -16.32020006923122 -1.8409564641607918 -10.501204476029589 4 4 -6
1137 1 5 0.053 -15.714807210246343 -2.6861046452585384 -10.421007397182983 4 4 -6
880 1 5 0.1268 -14.257288749520807 -5.803588833313466 -10.060165047066103 2 5 -3
859 1 3 0 -9.502295881788212 -1.5737776861215167 -9.424591617897434 2 5 -3
858 1 3 -0.1268 -10.68287978135047 -2.28190077109368 -9.365067020953468 2 5 -3
4079 1 3 -0.1268 -8.53572572766462 -6.22425912075512 -14.58470536122655 1 5 -3
4099 1 5 0.1268 -8.303128885284458 -6.215549213450133 -15.720463138523877 1 5 -3
2317 1 3 -0.1268 -1.9570769391886174 -4.562330119624175 -11.78705048534294 1 5 -3
4077 1 3 -0.1268 -7.763924322736413 -6.2525139856879335 -12.392851310870679 1 5 -3
4108 1 5 0.053 -8.545309504996506 -5.893931206297191 -9.870945303777823 1 5 -3
850 49 7 0.41 -2.9424321527579167 -4.140188046124305 -16.067239925864396 7 4 -7
462 1 3 -0.1268 -17.189838066141093 -7.669633292562347 -15.423044261252024 5 5 -6
2359 1 5 0.053 -3.615444802330968 -2.16273595937834 -10.04132704793626 1 5 -3
2316 1 3 0 -2.278152737235942 -3.799173407383879 -10.653356976205743 1 5 -3
2586 1 3 0 -0.4070885507907356 -2.290955027724735 -14.984857081735775 3 5 -5
1368 1 5 0.053 -0.6231337027071611 -5.295676302169301 -14.095933004589885 3 4 -5
3648 1 5 0.1268 -17.278577029441454 -9.49120939579215 -8.930927418630482 2 6 -3
4092 1 5 0.1268 -4.590283337456642 -1.147417772851501 -11.808920223191135 1 5 -3
4071 1 3 0 -5.715707176161706 -4.368808584860959 -13.559103720547235 1 5 -3
4070 1 3 0.0265 -6.037450771541405 -3.1017137048589714 -14.134734518122112 1 5 -3
4101 1 5 0.053 -5.928108187903797 -5.5695470734702415 -15.300612025687677 1 5 -3
2591 1 3 0.0265 -1.078913369016874 -2.400381556817038 -16.19721161487454 3 5 -5
4094 1 5 0.053 -6.599389317042622 -0.6209415271478775 -15.051138572478274 1 5 -3
4102 1 5 0.053 -5.290757855607348 -6.4592705763968805 -14.162888977494967 1 5 -3
2343 1 5 0.1268 -2.7621329293853023 -4.611685670298986 -12.46707867341265 1 5 -3
2609 1 1 -0.106 -1.003428955511911 -1.4995874148677881 -13.812563892993968 3 5 -5
828 49 8 -0.82 -2.9816833424516247 -4.618723919399663 -16.908373827639775 7 4 -7
4075 1 9 -0.4506 -6.955037251393209 -3.041999910873338 -15.178918174782211 1 5 -3
4069 1 3 0 -5.617139620279472 -1.8875314508784857 -13.58803242715413 1 5 -3
872 1 9 -0.4506 -8.041998881826983 -0.3024559541082503 -10.82826448774298 2 5 -3
4095 1 5 0.053 -6.9780878740139105 -0.1981453938256017 -13.210608147917576 1 5 -3
4078 1 3 0 -7.433643452629935 -6.11886156012654 -13.721059970144008 1 5 -3
2321 1 3 0.0265 -1.3210766279934845 -3.679016489578922 -9.665020765617122 1 5 -3
4088 1 5 0.1268 -3.942925292632154 -0.7183603919536417 -15.558225604777626 1 5 -3
497 29 7 0.41 -2.617094996066184 -7.0599759178828165 -9.895121608644814 5 5 -4
2358 1 5 0.053 -4.165757895886427 -3.752912492120762 -9.825584375270008 1 5 -3
2629 1 5 0.053 -1.882299554775372 -0.996699562640778 -14.26809886540069 3 5 -5
4097 1 6 0.4241 -7.6595008880651765 -3.725136716944286 -15.139784884998745 1 5 -3
2628 1 5 0.053 -1.3115836718140734 -2.108263082880992 -12.991070786807082 3 5 -5
1326 1 3 0 -1.3275290087542793 -7.101611492394525 -13.359954959470809 3 4 -5
4068 1 3 -0.1268 -4.821214717763084 -1.98606761212082 -12.497228055362537 1 5 -3
1331 1 3 -0.1268 -2.397799488038121 -7.120709557649468 -14.246424862766185 3 4 -5
1366 1 5 0.053 -4.851814956039748 -7.471710070540249 -15.36675080968934 3 4 -5
1338 1 3 0 -4.045780836673403 -8.690676245916945 -16.928991598506162 3 4 -5
3552 49 7 0.41 -2.0832731578268113 -4.448023711444963 -17.30103528605512 5 4 -7
1365 1 5 0.053 -4.872876813121769 -9.218943605777206 -15.014430317065239 3 4 -5
1327 1 3 0.0265 -0.9962105678087383 -8.292564022489596 -12.734330906019878 3 4 -5
2320 1 3 0 -0.094119925390725 -4.394110382361749 -9.709090156426107 1 5 -3
1347 1 1 -0.106 -4.285168267355415 -8.37735552202741 -15.438967409390223 3 4 -5
2318 1 3 0 -0.7223903324974259 -5.2020514179664215 -11.925252197597112 1 5 -3
2380 1 1 -0.106 -11.435325818312098 -11.393756207348046 -17.22863520031872 4 4 -6
3982 1 3 -0.1268 -0.33814650102914 -13.65483809698624 -9.601855193002404 3 5 -5
1790 1 3 -0.1268 -12.846494015450673 -0.5842612113462167 -17.128710411354522 1 5 -3
959 1 3 0 -3.3474346546745473 -17.29557872533327 -11.157382779762374 3 5 -5
1345 1 9 -0.4506 -0.21117264335979513 -11.889793855090574 -14.700733436054746 3 4 -5
2590 1 3 -0.1268 -0.38794059537156755 -3.0517355480747206 -17.288989408758546 3 5 -5
2625 1 6 0.4241 -2.81777803014932 -2.401052162956404 -16.893669159408407 3 5 -5
1789 1 3 0.0265 -13.98117791330382 -1.3998021731630477 -17.20775009701747 1 5 -3
1363 1 6 0.4241 -0.14371200131925477 -11.067459466977434 -14.256118606547025 3 4 -5
496 1 5 0.053 -17.30119917668126 -5.286389395920271 -14.68123330542869 5 5 -6
1108 1 3 -0.1268 -15.252570600559928 -0.04041445858652892 -14.24689314104549 4 4 -6
421 1 1 -0.106 -10.803814219735461 -9.431394193985705 -6.845813658762127 2 4 -4
417 1 3 0 -9.736386818608505 -9.303465993998921 -7.91900802592251 2 4 -4
439 1 5 0.053 -10.300310244382388 -9.420203641213819 -5.824185409504116 2 4 -4
410 1 3 0.0265 -12.284714277508453 -11.433788092555606 -6.117484630950276 2 4 -4
409 1 3 -0.1268 -11.81947417625605 -10.504519960635418 -7.0899710178234105 2 4 -4
422 1 9 -0.4506 -12.015870482596421 -11.241149242274567 -4.766125578190444 2 4 -4
408 1 3 -0.1268 -12.28191140673998 -10.758379554420012 -8.398670295654027 2 4 -4
441 1 6 0.4241 -11.697391732110361 -10.331379453938915 -4.8340961347198235 2 4 -4
436 1 6 0.4241 -8.84358923883962 -12.285400326576399 -8.420982813119785 2 4 -4
419 1 9 -0.4506 -9.014879985490316 -11.583760073503605 -7.803796243567467 2 4 -4
3946 1 5 0.1268 -15.491214340549474 -9.255250070291476 -6.238967979258943 2 5 -2
411 1 3 0 -13.053605764515014 -12.545564226268436 -6.524993461872947 2 4 -4
3626 1 3 0 -14.72203028025428 -13.711744205003878 -4.991898192924344 2 6 -3
3294 1 3 0 -9.194181578059187 -13.403961674149063 -4.250131838674706 3 4 -6
3627 1 3 -0.1268 -15.806369060073614 -13.557458221134128 -5.755120922555189 2 6 -3
412 1 3 -0.1268 -13.23510971614306 -12.816281552660733 -7.8418946026021565 2 4 -4
445 1 5 0.053 -12.621551451189854 -13.666348687980186 -4.6652018906977 2 4 -4
3652 1 5 0.1268 -15.625759703682938 -13.65407593805613 -6.833956343874073 2 6 -3
425 1 1 -0.106 -13.307936804760473 -13.679777268672495 -5.53674084498358 2 4 -4
3293 1 3 -0.1268 -9.73593195436137 -13.901599365977273 -3.077627969380977 3 4 -6
3631 1 3 -0.1268 -14.875819987408036 -13.714590058025738 -3.6367628763415496 2 6 -3
3299 1 9 -0.4506 -11.37163777694289 -16.940358918770265 -4.3177309058166085 3 4 -6
446 1 5 0.053 -13.04902886795426 -14.670757177351764 -6.0546990742310225 2 4 -4
3630 1 3 0 -16.12235633687029 -13.537849797403341 -2.9745819529638577 2 6 -3
3952 1 5 0.1268 -14.997029368227414 -10.505314195255712 -3.5284562777205384 2 5 -2
3292 1 3 0 -10.540606193104399 -15.022368450794954 -2.9955742429505996 3 4 -6
3314 1 5 0.1268 -9.558811795807847 -13.359063193303447 -2.1439783893325153 3 4 -6
3932 1 3 -0.1268 -15.342505237999308 -9.635986387554716 -3.019220593099787 2 5 -2
3651 1 5 0.1268 -14.001780847947142 -13.733920615051709 -2.978983788106678 2 6 -3
3296 1 3 0 -10.171872331296171 -15.262121290516424 -5.3477437868301205 3 4 -6
3297 1 3 0.0265 -10.713131059468168 -15.725188812062655 -4.146774590001106 3 4 -6
3302 1 1 -0.106 -11.113455360775772 -15.565126007779963 -1.7248547841622326 3 4 -6
3317 1 5 0.053 -9.296024859737958 -11.316604812544547 -3.903886706931525 3 4 -6
978 58 8 -0.82 -11.514464268252507 -11.24869655842338 -1.7704282066038566 3 5 -5
1445 58 7 0.41 -11.182164736361411 -10.321103873570841 -1.8841240095888807 1 5 -3
3324 1 5 0.053 -11.94756941046613 -14.90629177305119 -1.3710064745624067 3 4 -6
3641 1 1 -0.106 -16.11711624156575 -13.789800794305709 -1.4971341085585124 2 6 -3
1000 58 7 0.41 -11.782913383547069 -11.478655833838328 -2.671534583275001 3 5 -5
1559 1 3 0 -10.111414089743189 -15.802819122948282 -0.6180618246621528 2 6 -3
3931 1 3 0 -16.591977669389394 -9.11945881292951 -3.327170400980581 2 5 -2
3933 1 3 -0.1268 -14.587181673945569 -9.175305966430336 -1.9875957885926834 2 5 -2
3661 1 5 0.053 -15.093590629101902 -14.16038063180339 -1.1605216681178057 2 6 -3
3323 1 5 0.053 -11.62377453282631 -16.51891163015107 -1.9512097746249424 3 4 -6
3942 1 5 0.1268 -17.198080586154035 -2.5479110046364735 -3.277557773345057 2 5 -2
1558 1 3 -0.1268 -9.338073447965348 -16.906744299714873 -0.5234959356874747 2 6 -3
3318 1 5 0.053 -8.5674673893992 -11.830118092816384 -5.511298829687236 3 4 -6
3316 1 5 0.1268 -10.288713263604244 -15.764076845188093 -6.33553061136295 3 4 -6
3628 1 3 0 -17.053953258242988 -13.381474794742077 -5.22101931803987 2 6 -3
418 1 3 0.0265 -9.051571373496405 -10.387027025876026 -8.516809081160897 2 4 -4
3637 1 3 0 -16.606233624258387 -12.627239468664591 -0.6259531495718456 2 6 -3
3953 1 5 0.1268 -13.621643816012718 -9.637938520902328 -1.6717516926253584 2 5 -2
3658 1 5 0.1268 -15.14450366823171 -11.14910909555352 -0.9411926653656941 2 6 -3
3295 1 3 -0.1268 -9.415681799517088 -14.113906715575393 -5.418628749137296 3 4 -6
3298 1 1 -0.106 -8.62916434173211 -12.037224717663252 -4.432865905180671 3 4 -6
3955 1 5 0.053 -16.82696169563897 -10.443210622307548 -4.979901431834055 2 5 -2
334 22 7 0.41 -16.062014966754553 -15.947295748510047 -4.2029104813028635 3 4 -4
2405 36 7 0.41 -15.42199634645112 -0.935464735301089 -0.20278914916717028 5 3 -8
3660 1 5 0.053 -16.776413159815476 -14.634451288598758 -1.1881024055658571 2 6 -3
3629 1 3 0.0265 -17.242168978384782 -13.515603889267112 -3.7960865813780043 2 6 -3
3638 1 3 -0.1268 -16.105156615696572 -11.327108175957633 -0.5442178473977641 2 6 -3
550 33 7 0.41 -7.53888210354393 -14.643595554468888 -7.716649412928085 5 5 -5
3319 1 6 0.4241 -11.8361797967483 -17.183250539842973 -3.5274117210058957 3 4 -6
2070 22 8 -0.82 -16.337302039124456 -16.8078853462164 -4.634030178694511 5 3 -7
3903 1 5 0.1268 -4.073379588047317 -1.1517646145654403 -8.214478820643253 6 5 -6
3921 1 3 -0.1268 -17.011790178784683 -6.476888045120136 -7.506773073675026 2 5 -2
528 33 8 -0.82 -8.32292724650742 -14.271269623301453 -8.142832256021892 5 5 -5
3150 1 3 0.0265 -0.7779839931283377 -7.189002283624175 -3.5709804139281687 1 5 -3
3625 1 3 0.0265 -17.29895709211071 -13.371685596737992 -8.631990600828503 2 6 -3
881 1 5 0.1268 -10.980572184909434 -2.709884447980267 -8.441294653185146 2 5 -3
4033 1 1 -0.106 -4.199614950709 -4.236425479076281 -3.541723437181778 1 5 -3
889 1 5 0.053 -8.835238358410065 -0.6895635058777074 -7.3849097825847885 2 5 -3
2630 116 7 0.41 -7.800066533263578 -3.233310422648133 -4.847927091912659 3 5 -5
3315 1 5 0.1268 -9.146899583482286 -13.61836699922018 -6.348394031450988 3 4 -6
3152 1 9 -0.4506 -0.2801608111799645 -7.438305566315105 -4.879633219621283 1 5 -3
3966 1 3 -0.1268 -5.333782042478365 -14.431206338903529 -0.16227283813198312 3 5 -5
3084 1 3 -0.1268 -8.616316816419777 -9.365072703157942 -0.44183592280311856 1 5 -4
544 1 6 0.4241 -7.691435591855768 -16.20713650416334 -4.803948830153104 4 4 -6
3994 1 5 0.1268 -2.5637438076653236 -16.703391517841467 -7.340163720821108 3 5 -5