LAMMPS data file via write_data, version 2 Aug 2023, timestep = 2890000, units = real

2182 atoms
3 atom types

-16.721920056704324 16.721920056704324 xlo xhi
-16.721920056704324 16.721920056704324 ylo yhi
-16.721920056704324 16.721920056704324 zlo zhi

Masses

1 12
2 1.008
3 15.999

Atoms # charge

2376 1 0.01055286892794608 -13.193797474919327 -13.329858726408718 -12.755545615945259 -2 6 -16
2380 1 -0.03610694423574543 -13.83091631403525 -12.858218011720059 -13.783284415874421 -2 6 -16
2373 1 0.005507526897315207 -13.719400654358106 -12.944306027334285 -11.710602571148526 -2 6 -16
2378 1 -0.007080135433372345 -12.045669437706165 -14.589672490555316 -12.63049768350552 -2 6 -16
2379 1 -0.02103296347877254 -12.969531239061073 -12.945512508698428 -14.935203325629045 -2 6 -16
2382 1 0.3560912341831036 -15.347138560989901 -12.367801502347154 -14.454407648373829 -2 6 -16
3639 1 -0.01748009679973716 -14.366798746416155 -12.593086072881693 -10.634936055093563 -1 6 -16
2923 1 -0.002259450024381084 -10.372999769078618 -11.94089319356849 -11.109898223391193 -2 6 -16
2385 1 -0.05599114605044996 -14.922878645815608 -11.44656454795697 -15.405113300969917 -2 6 -16
2919 1 -0.024730707747255 -9.740070917837993 -10.625163033671404 -10.695422662996032 -2 6 -16
2862 1 0.0006629305310728644 -9.922477200432 -13.111111836029252 -11.169107838470808 -2 6 -16
2374 1 -0.03019194542014872 -10.868030789109318 -13.688689895628567 -12.397365785599119 -2 6 -16
2314 2 0.02057976756445734 -9.836402510488787 -14.571238373901599 -12.72587767390683 -2 6 -16
2916 2 0.02111822319461821 -11.276749868293347 -13.106741279084765 -13.271027842708648 -2 6 -16
2384 3 -0.4422944851834746 -16.445668445380196 -12.476551704359858 -13.917931045968302 -2 6 -16
2381 1 0.001806531032686225 -13.497312837616409 -11.87741791813382 -15.785602342190366 -2 6 -16
2848 1 -0.02392301322090337 -11.876118695111725 -15.228166556671647 -13.848509353584191 -4 6 -16
2769 2 0.02008566226512 -10.961883569545444 -15.06241591440281 -14.251005510772265 -4 6 -16
2858 1 -0.0006226734235497029 -9.01868552915088 -15.217127049555623 -9.95868524881071 -2 6 -16
2860 1 -0.004678410015441555 -8.864921716009462 -14.253539433300725 -11.133268701432643 -2 6 -16
2786 2 0.02196010262570202 -9.343444195902999 -10.127728713143389 -11.458514533595269 -2 6 -16
2313 2 0.0187558146370547 -11.9749624220111 -13.291443791937716 -15.049528773915998 -2 6 -16
2838 1 -0.004992309818193697 -15.98640107781961 -15.251066751929459 -12.077412146233607 -2 6 -14
2383 1 0.05002385745312635 -15.210982406684183 -10.072800684957489 -15.546528007647657 -2 6 -16
2902 1 0.01001199369852434 -15.700977981060095 -13.255074941512378 -10.74335382211027 -2 6 -16
2921 1 0.005705429628297003 -9.848215122609796 -10.189938104113603 -9.408145253360905 -2 6 -16
2996 2 0.0264301743317294 -10.090958998762348 -13.911030325375329 -8.568902006646837 -2 5 -16
2857 1 -0.009027256529220699 -9.313395928259233 -14.718893154311228 -8.646656245677645 -2 6 -16
2893 2 0.0145706237011266 -14.000056641820697 -12.550107485018419 -9.61519181846426 -2 6 -14
2928 1 -0.02260477230613287 -9.437696357006676 -8.92740306511161 -8.79680443012362 -2 6 -16
2259 1 -0.003977601014423258 -8.883454227951663 -15.359510987256499 -16.382012730961094 -4 6 -15
2840 1 -0.021483820900909 -14.851998929579146 -15.793438288342715 -11.965799069916208 -2 6 -14
2836 2 0.01732418762180924 -14.50334158706811 -15.850795182412286 -10.755968106998886 -2 6 -14
2510 1 -0.03748042988918834 -16.502941381313157 -9.395638698760866 -15.980322401045179 -2 7 -16
1355 1 -0.01292234135200147 -13.827929412137788 -9.547494469905766 -15.88164204893937 -3 6 -14
2844 1 -0.005748721670704492 -16.6937007028226 -15.82435485780171 -13.10279593113397 -2 6 -14
2834 1 0.007417762133663526 -16.346772344394374 -14.095783561405872 -11.6149795228481 -2 6 -14
1876 1 -0.0005486453027374605 -12.824425828644028 -10.679201086810792 -16.31780292886536 -4 6 -15
2917 2 0.0156577161115269 -12.824484284258856 -11.637459529480447 -8.773623500170007 -2 6 -16
2263 1 -0.003489284234479251 -8.655901750156895 -14.780124821033167 -15.258470077300705 -4 6 -15
2903 1 0.01182327059758298 -14.705519571207848 -16.353472620190978 -13.204652260901382 -2 6 -14
2456 2 0.01549272375479435 -8.726826840063827 -8.404783682537325 -9.450362874932797 -2 6 -16
2845 1 0.008742805425540422 -12.229347842110338 -16.598447974548527 -13.642282589777901 -2 6 -14
2341 1 -0.004252183785545004 -2.0790337622140878 -16.658067309340428 -12.844214503482444 -3 6 -15
1815 1 -0.006618923760944702 -6.144500973205839 -10.053075251574338 -15.038984400960521 -3 6 -14
2005 2 0.02416546746961686 -7.425642616772782 -10.965336396564279 -15.964461200541388 -2 6 -15
2325 1 -0.0187996880648493 -6.959179291593 -11.532743964968574 -15.116482124323031 -3 6 -14
2324 1 0.002999349189979898 -7.2792586325651065 -12.545565354202326 -14.270563252953687 -2 6 -16
3011 1 -0.008998057295717718 -1.7836702423826722 -14.578623393588854 -8.747200887194657 -2 5 -16
2266 1 0.0008110357095931081 -5.730926806637707 -16.70672079804367 -16.084747806095745 -4 6 -15
2480 2 0.02126470814780891 -3.608389680661074 -13.392481455803212 -16.314047410978876 -3 6 -14
3013 2 0.02479694992185671 -0.7979783053756704 -15.005977585536957 -8.41656407874527 -2 5 -16
2412 1 0.002341537427163344 -2.3777085349531064 -15.574134250042192 -16.384539995157738 -3 6 -14
2479 1 -0.02050742838436787 -2.790814963716569 -14.033507720668842 -16.50669459717351 -3 6 -14
2329 1 -0.0008003904664308295 -4.7980215762608385 -13.304172500717794 -8.848139873717013 -3 6 -14
2859 1 -0.0008171584845787228 -6.46777499871789 -13.372448281906118 -10.761070222601731 -2 6 -16
2335 2 0.02292499932294638 -3.205924386231644 -13.570947429329358 -12.800762671261245 -3 6 -15
2323 2 0.0178471963195314 -3.9750210567718836 -10.65847459435355 -11.532292772445446 -2 6 -16
2267 1 0.000167644084015206 -6.2269032418972685 -16.441536718147756 -14.904518363869247 -4 6 -15
2332 1 -0.003195654287924711 -4.194659558317129 -13.094493175254758 -10.113176602021925 -3 6 -14
2398 1 0.02446254572902744 -1.5149258613044163 -15.497455915144005 -11.111795356329154 -3 7 -15
2925 1 -0.0006023193038697154 -7.744278106950923 -11.947876672794512 -9.69464461421304 -2 6 -16
2331 1 0.003610419779915466 -5.241607946717966 -12.544547374801938 -11.053378024553792 -3 6 -14
2931 2 0.0164457038123634 -6.023580720695904 -9.39817627338342 -11.259309805530886 -2 6 -16
2395 1 0.00190469655400731 -2.3477921398987935 -14.838519515824983 -10.013503692129655 -3 7 -15
2261 1 -0.0005385876716624861 -8.03385471087284 -14.942230675618614 -14.043820359038529 -4 6 -15
2322 1 -0.002092744627395848 -7.576331838949357 -13.660851093946116 -13.33154579399061 -4 6 -15
2861 1 0.002097888703655584 -7.617358860803986 -13.788772093303015 -11.876037870015299 -2 6 -16
2264 1 -0.001376313457087032 -6.782949030568567 -15.912505553942166 -13.731451507582706 -4 6 -15
1819 1 -0.01591179063201828 -4.957761377741874 -11.119672898320438 -11.395601799672992 -3 6 -14
2868 1 -0.01733083819148722 -3.2635799064000652 -14.343273445543705 -11.908820209304386 -3 7 -15
2867 1 0.007288698866958224 -3.014471550812274 -13.712523255163704 -10.659756990204661 -3 7 -15
2870 1 0.0031328097877391 -2.3555138239247273 -15.302280885671957 -12.463021050728624 -3 7 -15
2929 1 -0.01457022623292675 -6.124309725101949 -10.45081919444081 -11.357147980931405 -2 6 -16
2926 1 -0.001415579168957889 -7.003426649219625 -11.037778159552817 -10.288781805659564 -2 6 -16
2853 1 0.001000606304373109 -6.9411879318038805 -13.329474146365284 -9.698986105780277 -2 6 -16
1881 1 0.006251449083713806 -6.27672564310729 -9.270701426482963 -14.906640803263828 -3 6 -14
2788 1 -0.0007949915479383354 -8.279215606387531 -16.454007819341484 -9.78158229417605 -2 6 -16
2995 1 -0.001360610040660293 -6.196024203641209 -13.224232895966423 -8.56828689395672 -2 5 -16
1771 1 0.001051527151491864 -3.3870772098372206 -16.53465632188189 -16.30804799727643 -4 6 -15
3520 1 -0.0008571252610743776 -12.980974403865364 -11.90556243111947 -5.139263113083612 -2 6 -16
3462 1 -0.02390470860365493 -13.256868330602853 -11.903362033212694 -6.604557442166098 -2 6 -16
3956 1 -0.001784316119837703 -15.462580119156867 -11.448937192517405 -4.097607074817978 -2 7 -15
3955 1 -0.0287652992863085 -13.794783979056781 -11.523769019446773 -4.103895931898502 -2 7 -15
268 1 -0.02811002963038905 -15.918793934152738 -15.561392694740567 -1.757834037054741 -2 6 -16
3522 1 0.270814386365456 -11.657289545131748 -11.08891661595982 -5.0378184636587475 -2 6 -16
3452 1 -0.005792413893771641 -15.114967211495228 -9.805937735531684 -2.616126422144544 -2 7 -15
3954 1 0.2203363926618801 -13.231238821877877 -10.375362470829739 -3.520270857774022 -2 7 -15
3523 1 -0.03686356611116414 -10.634495793751922 -10.855494353757042 -6.215131591762282 -2 6 -16
2250 3 -0.4171535700354316 -9.95692949154091 -14.857672923130304 -4.4593319644129705 -4 6 -16
3457 2 0.07024835096452181 -9.66256942405545 -15.555098184442409 -6.4923380150174355 -2 6 -16
3458 1 -0.02004401016609326 -9.174421505165757 -15.36777608639538 -7.387634635417561 -2 6 -16
3953 1 -0.03128938530522196 -13.869999763062323 -9.248303090354549 -2.99131499158567 -2 7 -15
3461 2 0.02804378511079519 -14.171502883401024 -12.043980297084468 -6.830175063698547 -2 6 -16
3951 3 -0.4989656287706704 -11.740283684796378 -10.221398721800133 -3.923402068641942 -2 7 -15
3521 1 0.01474531862719452 -10.891212310415991 -11.737855724604222 -7.232894160131074 -2 6 -16
3526 1 0.02753231258841014 -9.774818391475543 -9.690880734725301 -6.1901479522103235 -2 6 -16
3964 1 0.1480759505649731 -8.751237043452003 -15.755653024340859 -4.845895097061883 -2 6 -16
386 2 0.02839196888439725 -15.124757570747821 -11.717838091047442 -0.6716201863228426 -2 6 -16
3519 1 -0.01583719238093784 -12.247460557806077 -11.784804669818973 -7.7304213332151 -2 6 -16
269 1 0.004250423471216489 -15.885720255244168 -14.184627652605888 -1.3926052219523823 -2 6 -16
3961 1 0.207157654183014 -8.766578297590245 -14.845202381328685 -3.516073225379142 -2 6 -16
3448 1 -0.007047260928179089 -16.473022754009612 -11.024918700804799 -6.475467377879343 -2 7 -15
3527 1 -0.003117017858649852 -8.733705999008405 -9.657232242056807 -5.135408921176272 -2 5 -16
390 1 -0.04948240177511869 -13.922739172813017 -12.043954788257349 -0.23450596017908729 -2 6 -16
3454 1 -0.006555761200605685 -15.773385803095293 -11.291458204744664 -2.6606458904341124 -2 7 -15
2459 1 -0.006845163358848164 -9.819017789442603 -8.667674781798075 -7.313515070650755 -2 6 -16
3960 2 0.03784499583081159 -8.737891280398452 -8.799905297385545 -4.171085027009848 -2 6 -16
3560 1 -0.005130311705746319 -16.715733543554737 -9.455144357915495 -4.3166506152229696 -2 7 -15
4097 1 0.003272445193811221 -16.23188200113037 -9.101031620642098 -3.0221819070942444 -1 6 -16
267 1 -0.0009904648122393243 -15.396016839169896 -14.167213624732895 -0.04918220873259485 -2 6 -16
3446 1 -0.008442864670836686 -16.28108602374911 -10.680163437980147 -5.0523477475474206 -2 7 -15
775 2 0.06145042731621301 -13.053618263873474 -12.584418119381219 -0.588027479988015 -2 6 -16
2922 1 0.003819298306310228 -8.405875767298378 -11.530830843525738 -8.324815088354631 -2 6 -16
3528 2 0.03746127195546589 -8.755601980431956 -11.300983964249522 -6.399807800118581 -2 5 -16
4093 2 0.05727177717243719 -12.651503149245373 -8.597972280640974 -1.1187227765912744 -1 6 -16
778 2 0.03667433311999815 -16.229152917452108 -15.678721645155605 -2.824256208338968 -2 6 -16
777 1 0.04068530378669534 -15.308305018017785 -16.694846633505254 -1.1170586184993863 -2 6 -16
2920 1 -0.005956142884749678 -9.840632652857716 -11.29972292532163 -8.283849573084314 -2 6 -16
3537 1 -0.02040716554075058 -0.8494212320936527 -12.178141160331533 -6.531797922602486 -2 4 -17
3542 1 -0.001233019127338801 -1.0877401344314996 -16.088872385317842 -5.215165999652987 -2 4 -17
3967 1 -0.05479183562874436 -7.556132475606893 -16.44088699260289 -4.910299864467905 -2 6 -16
277 1 -0.02600468805600076 -6.7134613694111955 -13.981544768580786 -0.6413947560667773 -2 6 -16
334 1 -0.006521383793961789 -5.596519967136773 -11.865267573868143 -2.273051946666924 -2 6 -16
3459 1 -0.004603976255319317 -7.8711134467568025 -16.124407727964975 -7.3658766612038935 -2 6 -16
2936 1 -0.01807161824804382 -3.7561982231408426 -12.364710280931355 -5.7518159535808575 -2 5 -16
3474 1 -0.0004852582943167 -4.154557532720132 -14.080573662940326 -3.617624114455892 -2 5 -16
3582 2 0.02329663543985136 -5.410996580259556 -10.835165859117351 -5.165771413665807 -2 5 -16
3975 1 -0.004492680588698278 -4.399773837497643 -14.28800337684918 -2.116751330609494 -2 4 -16
3000 1 0.002843339331993242 -4.56470811269805 -13.256171883510405 -6.644229213679971 -2 5 -16
342 1 -0.04353748221970486 -7.851561909112417 -14.314001441715076 -2.6210633055031893 -2 6 -16
337 1 -0.0001154017844004727 -6.992941222371255 -12.032375324797957 -2.258244355179213 -2 6 -16
3986 1 0.004613535825244966 -1.3727479784086627 -15.916669630046727 -2.997388632699105 -2 4 -17
3480 1 -0.001907171764318032 -2.273044110442455 -15.940200370546991 -4.305271321480337 -2 4 -17
3529 1 -0.0231077988731618 -7.932578872314328 -11.199554459679899 -7.010561856511962 -2 5 -16
3584 1 0.00452655954422844 -7.493767175194179 -10.29105604937732 -4.876140119257372 -2 5 -16
3009 1 0.001964432711659921 -2.461458275177771 -13.836610263094197 -7.6981496920130095 -2 5 -16
339 1 0.003897293980048195 -7.484782194308188 -9.541691383636469 -1.0325369595652147 -2 6 -16
3483 2 0.01850743774020337 -0.6538812002459532 -11.069529278011546 -6.560389382250306 -3 7 -15
3965 1 -0.0004906688252864604 -6.826422459100958 -16.512709730169913 -3.429369674979351 -2 6 -16
2934 2 0.01915372982038781 -3.534654384925275 -11.422269157794922 -6.175551779303978 -2 5 -16
3153 2 0.02268345699031655 -2.949272346616247 -12.544614414592326 -3.6857149276206758 -3 7 -15
3476 1 -0.001661860138935711 -3.2179916477150794 -14.911719306782116 -4.090838745066798 -2 5 -16
2935 1 -0.01383456380175221 -3.8221194870798767 -12.796046062404937 -4.347734264095324 -2 5 -16
3963 1 -0.01117036906232635 -7.080582697153749 -15.580761925259004 -2.473618330789443 -2 6 -16
400 1 -0.004848800101487499 -5.821193882124575 -9.291659835961621 -2.4477617863338583 -2 6 -16
3002 1 -0.002063849433107015 -3.928820348403697 -13.325918717116744 -7.901527292216194 -2 5 -16
4037 1 -0.005087242632529375 -4.06090289495116 -10.752075141196743 -1.1729624017213216 -2 4 -16
341 1 0.03609516153949756 -7.549677979717095 -13.299158675585508 -1.6881852741209116 -2 6 -16
4039 1 -0.000149258248021103 -3.0412780835189865 -9.690217951015363 -0.6778089294949547 -2 4 -16
333 1 -0.005102778845707364 -5.033132338805135 -10.481301495333913 -2.2064178114439863 -2 6 -16
3006 1 0.005142545928355897 -1.3015934286370099 -13.276926346296777 -7.120474615234131 -2 5 -16
3531 1 0.01130028078006635 -6.597889446775417 -11.881576396636259 -6.501326074032638 -2 5 -16
3971 1 -0.0002732754253041841 -3.9010918197555062 -11.97934634371135 -0.7953844189446401 -2 4 -16
4051 1 0.0003349149618589661 -0.796212995025657 -10.093917432415887 -1.897612409461301 -2 4 -17
3977 1 0.008665347831286255 -3.4698913222141123 -15.267212442614976 -1.5987711050468576 -2 4 -16
3966 1 0.01058794934554145 -6.85271876439548 -15.343536244443065 -0.8949112069474572 -2 6 -16
3972 1 -0.003455375533903008 -4.650727721728686 -12.867565331230486 -1.7803630417778558 -2 4 -16
4041 1 0.002468300976755693 -1.7958728940653692 -9.807446822845831 -1.2121646439333884 -2 4 -16
336 1 0.01048085266779988 -7.458769386777454 -10.780441040698683 -1.4860947587743547 -2 6 -16
3987 1 -0.0122153691891891 -2.1892636085569372 -16.142939070998157 -1.875344198839846 -2 4 -17
3589 1 -0.02572272236324614 -6.301511092388027 -10.973200850947771 -5.451542112991172 -2 5 -16
3001 1 -0.003378903891129503 -5.971691674399836 -12.968757142039081 -7.050212178404806 -2 5 -16
3976 1 -0.07646277013950598 -3.2082420853256717 -15.546516865931723 -0.07145436695062904 -2 4 -16
888 1 0.01203591984811322 -14.986450930186251 -13.36267975118302 4.440039311568607 -2 6 -16
887 1 0.04262313379294563 -15.2136451038384 -14.005567657814346 2.9783013397770817 -2 6 -16
774 1 0.01588996871742243 -15.629548594977626 -15.426957607419935 0.6879275658846596 -2 6 -16
829 1 0.02105271232759339 -15.686742966507335 -13.445193833536768 5.616131871361509 -2 6 -16
772 1 -0.06824832005668499 -15.639497891958449 -15.109189420506937 2.298530803279311 -2 6 -16
1397 1 -0.01389041145264222 -15.86803780846485 -11.965644927457152 5.830091182899667 -2 6 -16
890 1 -0.01959301082470097 -13.676573246226846 -11.18864995100484 4.761031631426772 -2 6 -16
893 1 0.0100617648741067 -14.706409155439802 -10.919496856026386 5.44788286986373 -2 6 -16
833 1 0.002341919812139551 -14.079506089892474 -12.343389276025158 3.9934957863046723 -2 6 -16
389 1 -0.005768654312886087 -14.659953301538184 -13.123989088136826 2.0113670199256677 -2 6 -16
892 2 0.05417661381238166 -12.781330790296966 -10.604703152676775 4.315005025622393 -2 6 -16
330 2 0.05998749731214102 -12.73814016671681 -11.721584668569514 2.4054965952642204 -2 6 -16
830 1 -0.02138438393149198 -13.54406616006289 -12.344879998942096 2.727718341151003 -2 6 -16
894 1 -0.007125885725201585 -15.07398291099374 -9.81906761304378 6.277401554803865 -2 6 -16
464 2 0.03787061109754451 -16.46667591273661 -9.094233927465703 3.006847839278009 -2 6 -16
827 1 0.2665555738329842 -16.014801651163335 -16.147246704125372 3.1039578875086566 -2 6 -16
825 3 -0.5358193623937632 -16.139863489473374 -16.185399342580276 4.601025449192367 -2 6 -16
1404 1 0.02856546611099715 -15.803713597460197 -16.37133719299655 7.679570380837215 -2 6 -16
1399 1 -0.02102317502304536 -16.290406971181486 -15.125342219774854 7.7022195049817235 -2 6 -16
851 1 -0.004333922932633384 -9.57307990627703 -9.544605922829136 7.92349200192212 -4 6 -15
896 1 -0.008741352390933873 -16.30698298258377 -9.318392456884549 7.015694018300596 -2 6 -16
468 3 -0.558756360592954 -11.4400728866251 -9.188802069123419 1.9062310560458693 -2 6 -16
329 1 0.004128690635454405 -14.671762341692903 -13.128167247143633 0.5508075727857659 -2 6 -16
854 1 0.01057705246206959 -9.722949350070987 -9.148853504495914 6.497733980892862 -2 6 -16
462 1 0.009139101550792375 -15.035156666384605 -8.602241609674756 5.526824184392928 -2 6 -16
1477 1 0.02092673570588015 -16.69323238424188 -14.296799710046955 6.476725070322679 -2 6 -16
328 2 0.04671608561116825 -13.675432563982206 -11.521946350885353 0.665872318265263 -2 6 -16
797 2 0.02640155920631268 -9.174422830689764 -16.324600293056577 5.542943707719817 -3 6 -15
908 1 0.4287905892293223 -10.516043763157153 -8.590966030692417 1.623522411355653 -2 6 -16
776 1 -0.01934728878484364 -16.11100312237589 -16.674092994015933 0.2855502575692639 -2 6 -16
363 2 0.02198499888980213 -0.5199840465354387 -8.9304910568867 6.315153860311863 -2 6 -15
292 1 -0.01258879841330916 -2.39407297031926 -15.660269999376888 4.93433101384035 -2 6 -15
281 1 -0.01924044991866221 -6.906045585212201 -16.25225979277968 0.30992919383480033 -2 6 -16
356 1 -0.02301281195441721 -0.36334425065848613 -11.492689716407329 6.871720069270931 -2 6 -15
364 1 -0.002765039478329335 -0.06384000968502698 -11.832842202414799 4.553180609813429 -2 6 -15
286 1 -0.06026002054569067 -6.887849910941678 -13.964053566082724 8.183054843047783 -4 6 -15
362 1 -0.02204498322226339 -0.20519268895719214 -9.33673797855346 5.44885171642458 -2 6 -15
858 1 0.0005047255120579006 -0.9477622737748401 -14.940362858660468 8.177877609742518 -2 6 -15
791 1 -0.02695877390380727 -7.817980079502846 -11.63191096888041 7.495456965125926 -4 6 -15
853 2 0.02477539838145375 -7.331519239342323 -11.312354256286559 6.784679787483585 -4 6 -15
357 1 0.007260113063478981 -0.1052105149410463 -12.784897114931693 7.154748116818987 -2 6 -15
294 2 0.05174063835272899 -1.745283968018755 -15.334230093161715 4.036393379500857 -2 6 -15
3346 2 0.02001032368923305 -7.234129640091022 -15.86294721909234 1.3172343697445048 -3 6 -15
216 1 0.002476632228997775 -6.160530544196808 -14.45073088568789 6.8506827725355866 -3 6 -15
355 2 0.02137501900142712 -0.525385641755102 -10.533943496026327 7.3723532197821955 -2 6 -15
3974 1 -0.009307802427432912 -3.560793709715253 -13.153718479770353 0.09353827208108231 -2 4 -16
3980 1 0.0316484813652544 -3.5450688345735046 -14.285847769729502 0.8991346090801988 -2 6 -15
431 2 0.03142068217014711 -0.6766294165273815 -13.258345691588957 2.6687483060321933 -2 6 -15
3912 1 0.3095253677984527 -2.373431817315608 -16.50987554253125 0.2184296478520177 -2 6 -15
3978 1 -0.003378143191714131 -4.174281073953039 -14.514412855538483 2.257368557967529 -2 6 -15
424 1 -0.004198721346173141 -0.12094618022990446 -13.732028828685966 6.01267326959852 -2 6 -15
291 1 0.01274393186593476 -4.906835962200528 -15.871710923787816 2.7711211344563598 -2 6 -15
215 2 0.03095698403909529 -7.359323833587357 -14.759084823235575 6.509222816987865 -3 6 -15
361 1 0.00353008214648879 -0.17073914733419898 -10.832923610419222 5.492917542555593 -2 6 -15
353 1 -0.004503341108737097 -0.9187917294925249 -14.803169702013724 6.723796149617893 -2 6 -15
214 2 0.01415701770859397 -5.432278384036684 -13.665281838921727 6.34564550215007 -3 6 -15
219 1 -0.06601874523801457 -5.6033388230554015 -15.890823038164353 6.784410501553778 -3 6 -15
358 1 -0.005319970345495847 -4.770914118395613 -16.18520569848406 4.240537101831297 -2 6 -15
221 1 0.0002747380853119347 -5.472703011317051 -16.634577241383294 5.50691785613529 -3 6 -15
354 1 0.003896452553445482 -1.859272939371929 -15.922684144828066 6.279902904314585 -2 6 -15
415 1 -0.0024704063574357 -2.7841330070815644 -8.799123242525264 0.35314810316016976 -2 4 -16
278 2 0.01631476990740243 -6.2600529448291224 -13.5874715078998 0.3345978348080282 -2 6 -16
414 2 0.01833051802776617 -6.203548077241921 -8.526684623516433 1.2577470939136834 -2 6 -16
293 1 0.01812074294358773 -3.518159011787895 -16.703320938372897 4.617264018717987 -2 6 -15
287 1 0.01190183630813106 -7.848718479405363 -12.859301310677811 8.10105052349354 -4 6 -15
2445 1 0.004159920827928116 -15.796695523476718 -11.952627410991708 13.951998891134128 -3 6 -16
1807 1 0.004097444758528346 -14.416450642928348 -12.066872332697189 14.57041530481794 -4 6 -16
2316 1 0.004481423872366982 -11.847839244303604 -14.779864259164478 13.515222158483034 -4 6 -16
716 1 0.006313444624302826 -11.539534183234434 -15.417414147041974 12.386831203441295 -4 6 -15
717 1 0.01602622776104314 -9.803001936250038 -15.652055448275421 11.203121891376762 -4 6 -15
2317 1 -0.006893540378233261 -13.502473686669507 -12.980605806566524 14.22723787199077 -4 6 -16
1809 1 -0.02158507777452747 -13.114468392694702 -13.953810681628793 13.421901717877304 -4 6 -16
2443 1 0.007125009757468896 -16.16824340213754 -10.495961366177152 14.194098804121609 -3 6 -16
1806 1 0.001917636930226551 -14.021312983061819 -10.778498903516297 14.994785763281504 -4 6 -16
1808 1 -0.005088836987574551 -12.723499314547563 -10.358715775478435 15.6932541302988 -4 6 -16
844 1 -0.02539125809163493 -10.351901646002053 -11.026419610830127 12.116497267873891 -4 6 -15
846 1 0.001375208505093872 -10.060049162075256 -10.54047144907034 10.786909983639685 -4 6 -15
718 1 0.02166076990448531 -11.342569026481932 -15.624550108585455 11.050984793409683 -4 6 -15
2375 1 -0.0240588600451911 -16.07948789652889 -12.750602206658062 12.780702124887728 -3 6 -16
723 2 0.01994464807690633 -8.52558461236012 -12.39596879941486 11.662468613957074 -4 6 -15
2447 2 0.0115387295872572 -15.219186197258864 -13.574897134881235 12.278364819780231 -3 6 -16
841 2 0.01459354006966323 -13.67733319366304 -14.267939472777254 12.403645540750937 -4 6 -15
1805 1 -0.003918761263270298 -14.8182720572344 -9.905185361233306 14.093233645346736 -4 6 -16
1358 1 2.099261542944791e-05 -10.258483532935188 -10.283646569187987 13.300996320311095 -3 6 -15
1357 1 -0.00529415296283877 -11.8697600365514 -9.127429996939075 15.320752440999785 -3 6 -15
847 1 -0.006243030761177611 -9.13417998250677 -11.35640382593824 9.768294813851123 -4 6 -15
840 2 0.01885064490472194 -11.18061821641626 -11.566433733283764 12.033680946693641 -4 6 -15
1763 2 0.02202766176671931 -11.835036714366172 -13.590609380480982 15.645771046432236 -4 6 -16
2258 1 -0.02593984107531179 -11.257574417777468 -14.17582846966781 14.970547241306477 -4 6 -16
2303 1 0.004410506246928354 -10.305230981799982 -14.817095106570477 15.157571689941639 -3 6 -15
645 2 0.00917932100263201 -16.7006109195639 -13.740793374228822 10.973244429866797 -3 7 -15
848 1 -0.01841034497907547 -10.258600715448734 -9.21074583401054 10.341680718711752 -4 6 -15
721 1 0.003538536944517043 -12.044717891742623 -15.663520911637375 9.488609352440955 -4 6 -15
790 1 -0.003652072446584302 -8.380680120730412 -12.527688945017662 9.70874601313287 -4 6 -15
783 1 0.03626074224228977 -11.637499012085994 -16.469847818604258 8.521594243034741 -4 6 -15
2302 1 -0.001600998970897619 -9.226430015580608 -15.403957447425528 15.758618512846136 -3 6 -15
1356 1 0.001600437637229349 -10.576195568342634 -9.455558525620802 14.49948711787089 -3 6 -15
850 1 0.0003835499278188777 -10.130632014603634 -8.5998793730418 9.196581783796383 -4 6 -15
785 1 0.03945080317082583 -8.509152837292486 -15.565491116805024 11.34033203170355 -4 6 -15
2051 1 0.00376656176078536 -13.796996298735321 -8.578773455418744 16.6452576104961 -2 7 -17
1396 2 0.01354523838373437 -16.478533195360082 -14.687735021790438 8.675369246043388 -2 6 -16
849 1 0.004663715133444747 -8.656588975468289 -10.797529169657603 8.390334750820129 -4 6 -15
2048 1 -0.0339882497286261 -14.266901195706444 -8.737099454363975 13.750371905712427 -2 7 -17
2444 2 0.02185647166557533 -14.677232229623879 -8.570731507922453 12.718926429549475 -3 6 -16
789 1 -0.01333599473387606 -7.985398989889086 -13.148249531006654 10.898110364045762 -4 6 -15
1907 1 -0.01357282851933313 -2.111895620803731 -11.991990204675233 16.087593657463323 -3 6 -15
859 1 -0.007305798689330553 -1.7900177911946094 -15.776516944653004 8.923974364927663 -2 6 -15
857 1 -0.03956251800625628 -0.19043513967644318 -13.53870027707243 8.62128458052384 -2 6 -15
1908 1 0.00826134002517581 -1.1202280012650412 -10.871126748348843 15.772095984249338 -3 6 -15
1319 2 0.02713811858052415 -4.402694320138641 -16.276316076713456 10.7219765065487 -3 6 -15
788 1 -0.04102698002001678 -7.752122071117606 -14.525028804132182 10.46565267233052 -4 6 -15
1904 1 -0.001007224612121105 -0.21655453953840947 -15.312255995636022 16.247287399865314 -3 6 -15
2246 1 0.001940757017777989 -8.120306873266804 -16.115298521661185 13.595120857186947 -3 6 -15
2242 1 -0.02220798728490752 -8.193929433889995 -16.07088239046711 14.884666466787392 -3 6 -15
726 1 0.2668837561947437 -7.150929591384478 -14.958869904779172 9.138258468653264 -4 6 -15
1502 1 -0.001512229692732403 -1.850799430188877 -9.843341492717485 14.982245862589606 -2 6 -17
1909 2 0.02087660283822654 -2.899666193018227 -9.96230973626525 14.93460661391567 -3 6 -15
1501 1 -0.007020333912147023 -1.942516662537753 -8.616722726446893 15.874217881434483 -2 6 -17
730 3 -0.5116665015530238 -7.154193885810362 -16.35046380647302 8.727385150780968 -3 6 -15
2248 1 -0.009827228405698177 -7.773773684584869 -16.38416569344787 12.45801554515402 -3 6 -15
915 2 0.02404315648940781 -0.8424160881500246 -12.994100572390996 9.408779879519276 -2 6 -15
2245 2 0.02039096829415564 -7.501949423178073 -16.461404572711388 15.552361046762556 -3 6 -15
1906 1 0.001011100168191212 -0.33243713360994637 -14.061333685102115 16.03753418005949 -3 6 -15
1826 1 0.002189360074021325 -1.218216344334081 -16.249308286352452 16.66423092299447 -3 6 -15
1970 1 0.003906226122614587 -1.7487659750219098 -13.391256556562622 16.190105104908866 -3 6 -15
3125 1 -0.0190369637452904 -13.20489175277482 -3.305105658397923 -10.24139877563604 -2 6 -16
3123 1 0.008964891071857453 -14.5471884924125 -2.8932268443844724 -10.318694629937465 -2 6 -16
3128 1 0.00524119590325877 -12.34754594669687 -2.6534436396088283 -9.222289192915635 -2 6 -16
3118 2 0.01594144843767942 -13.092951251517155 -4.28805840235557 -11.030464475444452 -2 6 -16
3121 1 -0.02334338199057768 -14.903270938824994 -2.234503951278241 -11.68813268791958 -2 6 -16
3122 1 -0.01762339194890942 -14.897755244846667 -1.823038656886186 -9.343781015922257 -2 6 -16
3130 1 -0.03357051834705169 -10.820491930460046 -3.0246477417512363 -9.087403624229848 -2 6 -16
3119 1 0.001948988478877735 -16.120163315560934 -1.6360230489547807 -11.865283960994148 -2 6 -16
3201 2 0.02011674916696279 -11.065857591502477 -3.9139954099104624 -8.603360467275403 -2 6 -16
3132 1 0.004415643723380637 -10.354764299244465 -1.506767026386034 -8.984749810745274 -2 6 -16
2572 2 0.02038523098823001 -14.222966953607388 -2.3045096373050815 -12.461810217620606 -2 6 -16
3203 2 0.01596732916165621 -10.48242432536508 -3.498392874063038 -10.207220868818503 -2 6 -16
1880 1 -0.027564484243695 -9.324718400024468 -7.250125003905914 -15.670353668831668 -3 6 -14
3205 1 -0.000781083836530843 -9.29045675676183 -0.7604367629631708 -8.765869384427054 -2 6 -16
3133 1 9.272050044160929e-06 -11.510983743015318 -0.8922661149013126 -8.463146860534462 -2 6 -16
3127 1 -0.002366672326571131 -12.76733031783259 -1.5302348435469528 -8.457704463854013 -2 6 -16
3634 2 0.02494971839722288 -15.638744864378358 -1.159029103238075 -9.757496853484039 -1 6 -16
1309 2 0.01713080186542738 -10.010585078056343 -7.643782756181093 -14.964338595033635 -3 6 -14
2531 1 -0.002399595543499954 -2.4242638578990063 -0.3442395888451858 -13.966153157893986 -3 6 -15
2024 2 0.0159374444412303 -1.3457251631294154 -7.507391072617493 -13.705643700527533 -2 6 -16
3069 2 0.02038214976346913 -6.026837777575515 -0.5677407600253052 -11.24222584902987 -1 5 -16
3067 1 -0.01783421324086225 -5.752210390017363 -1.292885512874413 -10.420129286832186 -1 5 -16
2453 1 0.001084106350298028 -6.6903808344937 -1.5040472619031835 -9.393292251383498 -1 5 -16
3070 1 -0.0213801684428182 -2.547391477454954 -2.3991724084486536 -9.201944966587622 -1 5 -16