LAMMPS data file via write_data, version 2 Aug 2023, timestep = 2410000, units = real

2660 atoms
3 atom types

-16.721920056704324 16.721920056704324 xlo xhi
-16.721920056704324 16.721920056704324 ylo yhi
-16.721920056704324 16.721920056704324 zlo zhi

Masses

1 12
2 1.008
3 15.999

Atoms # charge

1848 1 0.0272648995617907 -12.108356905162681 -9.47511414626799 -13.442390177932777 -2 4 -14
2295 1 -0.01240565976522336 -14.181041596589237 -14.800905174624138 -13.568654014596424 -2 6 -15
2353 1 -0.0006437788331469727 -13.312611186866565 -11.501024009499918 -11.016458931441088 -2 4 -14
2417 1 0.01964564449330941 -12.379861476771241 -9.375434158708087 -11.225175068511598 -2 4 -14
2297 1 -0.00201326363080649 -13.04703240831869 -15.197992304998582 -13.405154377670788 -2 6 -15
2352 2 0.01399170135163353 -13.648136840708142 -12.717679071838202 -12.50338880691104 -2 4 -14
2354 1 0.0008162714582618212 -13.307614584501575 -11.583019367240324 -12.328376939381615 -2 4 -14
2356 1 -0.006441343125778255 -12.95053262811495 -10.699231590137435 -13.47878799578273 -2 4 -14
2829 1 0.02223126785323079 -12.047262311824197 -14.047012158231775 -12.92574483742567 -2 6 -15
2416 1 0.008514494115848911 -12.843569974183735 -10.265461624958807 -10.276971701740061 -2 4 -14
2419 1 0.01104588611923001 -13.630734992995718 -9.845405172932923 -9.05648043370588 -2 6 -15
2831 1 -0.04353927276339289 -11.097634719318014 -14.441216542856287 -12.0311971826509 -2 6 -15
2364 3 -0.4735026415609022 -10.050429428346828 -11.911180230992848 -11.334101537879075 -2 6 -14
2300 1 0.2304524553587242 -10.219251782861813 -13.56830886116607 -11.373859878226035 -2 6 -15
2296 1 -0.02163848307037927 -12.900324208721583 -16.47937057598887 -14.241037349258578 -2 6 -15
2293 1 0.001706192418722732 -15.584717339129465 -15.097149285796108 -13.889771899095395 -2 6 -15
1911 2 0.0260490561041945 -12.137095741285833 -11.149295278544978 -16.43856548421054 -2 4 -14
2244 1 -0.01121578496982398 -9.789831505895298 -15.429768126707973 -9.359991480525554 -2 6 -15
2896 1 -0.009750674896996221 -8.522936488722948 -9.801359150805254 -10.996841388468043 -2 6 -14
940 2 0.02538263870851407 -16.711949938737792 -9.607649405264649 -11.679287962067503 -2 6 -15
2833 1 0.003424481366064387 -11.155665934011827 -16.153645395985194 -11.49876342419936 -2 6 -15
2759 1 -0.002496307936089862 -11.217228821434427 -15.765705217828277 -9.962215243963962 -2 6 -15
2365 1 0.2639798682043796 -9.11253265962868 -11.173224104154906 -10.473157219584884 -2 6 -14
2304 1 -0.02050512028520603 -9.62550700232435 -14.007159825396288 -10.218245870481965 -2 6 -15
3311 2 0.01903348591314795 -15.452607324578079 -16.549003444386646 -9.549953744990951 -2 7 -15
1849 1 -0.01401541744456241 -12.51904392782428 -8.88984946146554 -14.740256158011828 -2 4 -14
2421 1 -0.01569092836905075 -14.722647524677066 -8.829237607446409 -9.172884845229914 -2 6 -15
2292 1 -0.02154555470543081 -15.433013228503576 -16.58066440924642 -13.996253090520906 -2 6 -15
1851 1 0.008566796992897585 -13.53051802504066 -9.498437291688393 -15.680214473707954 -2 4 -14
2761 2 0.0136931212557722 -13.324374869016609 -15.858230558193137 -9.373577700256094 -2 6 -15
2697 2 0.03480927138040081 -9.161958355755282 -16.354226541554137 -9.670276695934449 -3 6 -16
1852 1 0.009125743414374367 -14.740061207478272 -8.879562461212679 -16.108590535713393 -2 4 -14
2760 1 -0.0195470908228989 -12.342535350539245 -15.479139716293735 -9.055441844139253 -2 6 -15
2418 1 0.009548749384126483 -11.645142512886752 -8.673142088591353 -12.160616749504793 -2 4 -14
2355 2 0.02243128217005883 -13.000916356400218 -11.531513868317216 -14.178074588430185 -2 4 -14
2225 2 0.01668682000674139 -14.035088668499379 -14.541316223827602 -16.268235659304295 -2 4 -14
2351 2 0.01384009873293992 -13.78974308945669 -12.266438787543551 -10.401411772679946 -2 4 -14
2813 1 -0.01848617573727234 -15.802958639530619 -15.455881072705449 -9.434344909645452 -2 6 -15
2966 1 -0.005619147152085911 -9.244796175341627 -8.639646655909045 -10.68289208310167 -2 6 -14
2368 1 -0.06672327668301636 -8.447621408978993 -11.79190730512488 -9.440391587900598 -2 6 -14
1853 1 -0.02350278424426847 -13.142855299752057 -10.623712478979849 -16.55939229507765 -2 4 -14
2423 1 -0.00460736569091985 -16.231633171577716 -9.293141427049402 -8.756536013610193 -2 6 -15
2369 1 0.051019426083414 -8.90640636476567 -13.070317464485722 -9.431262524434283 -2 6 -14
2814 1 -0.001919912332633986 -16.476779127915552 -15.682974560032855 -10.68953680480078 -2 6 -15
1676 1 -0.006198715944235739 -8.77296719496795 -15.79924697727688 -16.126273040575438 -3 6 -14
2361 2 0.02041805085480053 -16.61067882324019 -13.168525344873125 -13.005507139784463 -2 6 -15
2968 2 0.02633850534948998 -6.653682367892634 -8.854463107061358 -10.880971541458159 -2 6 -14
2264 1 -0.0002910636949366857 -0.019114279774852312 -11.844639536201857 -12.85442222668978 -4 6 -15
2445 1 -0.005749481342537222 -5.716117082970182 -8.624614783206159 -16.332280435604197 -3 6 -15
2836 2 0.03762572794318132 -4.787049070053838 -8.786122451801297 -8.912543742093211 -2 6 -14
2317 1 0.03634086634008984 -3.227792429278675 -10.328134309112091 -13.813206527243592 -4 6 -15
2302 1 -0.05311823011087037 -4.283111701865831 -14.509348385543387 -13.33607818922523 -3 6 -14
2322 1 -0.03142154201312593 -0.6176969486459564 -11.033315741994153 -11.764752362903115 -4 6 -15
1707 2 0.02014512144546513 -0.909575907289499 -15.467099119580357 -11.094230347704785 -4 6 -15
2205 1 -0.03265428817645956 -0.23324190480577997 -15.719332106310814 -11.767917707100155 -4 6 -15
1807 1 -0.001829237553515804 -4.672462526041094 -9.112003131990944 -15.529413900191173 -4 6 -15
1878 2 0.03594845338530894 -4.513724607142385 -8.96755944350652 -12.713018127100781 -4 6 -15
2256 3 -0.5069557448149207 -1.084419608869015 -10.64894387366359 -15.940840843769712 -4 6 -15
1753 1 -0.0322071775310584 -7.6802625967618985 -13.674494984546895 -16.250356376004614 -3 6 -14
1818 3 -0.4716082856833976 -3.0562379089373675 -9.906600743017792 -11.56502047056511 -3 6 -14
1755 1 0.01326635402773909 -7.96452905721212 -14.926851442494831 -15.60857205022942 -3 6 -14
1809 1 0.1332144325012302 -3.560818407572006 -9.22429442999622 -13.056860904542418 -4 6 -15
1677 1 0.04086738476379179 -7.512385861197878 -16.267521110549193 -15.60023374955623 -3 6 -14
2898 1 -0.001781956464780597 -7.06593707710637 -9.697625420077555 -10.520737593656976 -2 6 -14
2177 2 0.009981971499365451 -3.385050214976204 -13.377864235294862 -16.15017290225082 -3 6 -14
2259 1 0.2860570953634503 -1.0393453899047311 -11.068732691869403 -14.59343783997727 -4 6 -15
2242 1 -0.001455947117936347 -3.513523156574786 -14.519956064180068 -14.332541823481588 -3 6 -14
716 1 -0.03455332186156067 -3.6893775643403055 -10.954333893196617 -16.253707950770366 -4 6 -14
2258 1 -0.1237106593062782 -2.1735290587845206 -11.031331473934218 -13.56977718815321 -4 6 -15
2316 1 0.008303779176144527 -4.123797320749185 -10.35972788343902 -15.00365519484636 -4 6 -15
2324 1 0.02455508722049021 -0.21444477457033084 -10.992190566277268 -10.535327433953174 -2 6 -16
2246 1 -0.0123514290196137 -4.152094862514753 -13.614725911548563 -15.421688860499573 -3 6 -14
2835 1 -0.004690863011317693 -7.205078768399998 -11.502120059872317 -8.744176751118824 -2 6 -14
2841 2 0.02583752217284931 -2.7191328332667957 -12.808131642612006 -8.865111278990907 -2 6 -14
2245 2 0.03309396850537182 -7.804764245492473 -12.732333288954173 -14.729522891915831 -3 6 -14
2834 1 0.01231936271448291 -6.7822327837492775 -10.425829351919099 -9.398496181527783 -2 6 -14
2303 1 0.2134555222137151 -5.297459362662584 -14.13262354700321 -12.802973505279338 -3 6 -14
2248 1 -0.0401949779825839 -5.630189313297154 -13.214350940182529 -15.21146296914202 -3 6 -14
2241 2 0.01160171854354363 -2.542515316453204 -15.069863780341278 -14.124747676049868 -3 6 -14
2243 1 0.2181243744544686 -6.750619079581119 -12.971647525985261 -14.289594840766867 -3 6 -14
2320 1 0.2807150800036626 -2.2144248084455715 -10.86202006316613 -12.171592352591066 -4 6 -15
1795 3 -0.3953788948943851 -6.831578532545808 -13.180117392036694 -12.812566263068259 -3 6 -14
2838 1 -0.02252217944097732 -5.443859945145572 -9.639045667500191 -8.500540160794586 -2 6 -14
2367 2 0.01696224144297005 -8.333523915737747 -13.363574273161893 -8.476395400622183 -2 6 -14
1748 1 -0.02443945432965293 -6.228947766026775 -13.006598019454495 -16.572075564911085 -3 6 -14
3442 1 -0.01903164031617169 -11.685976935688444 -10.706668165665329 -2.75554812140932 -2 6 -15
3443 1 0.02479404509944349 -10.653699186065875 -11.352247386096211 -3.3977465843481744 -2 6 -15
3314 1 0.2854661574085801 -11.421113793507885 -12.815380535351824 -6.17096461695603 -2 7 -15
3316 3 -0.4719664873627638 -11.523167596484688 -13.824158888697804 -5.288811502713604 -2 7 -15
3383 1 -0.03133944238875114 -10.129480840238081 -12.025571273238313 -5.953845500190069 -2 7 -15
3949 1 -0.002001501062770531 -9.484944166194298 -11.825369928086044 -3.6666649136384355 -2 6 -15
3384 1 0.01160115544103194 -9.092449196243034 -12.381286357554709 -4.988640870436655 -2 7 -15
3440 1 0.005326794390692287 -12.984329409058777 -11.215412967361608 -3.2251646156002423 -2 6 -15
3825 1 -0.001450379485868791 -11.568210237100134 -15.234184546049045 -0.9984218955564026 -4 6 -15
3324 1 -0.02102769114251692 -11.92600897112941 -15.404293561706274 -2.350166547581011 -4 6 -15
3438 1 -0.005991445146523087 -13.981179307564325 -10.398001242343357 -2.596737455274339 -2 6 -15
3326 1 0.03096835201384504 -11.163454833105463 -15.59196824205683 -3.544427115205187 -4 6 -15
3890 2 0.05327093723954493 -8.517491549343783 -13.169254499815624 -5.243236125233956 -2 7 -15
3888 1 -0.02231426704930034 -10.452656581421842 -10.698840816015545 -6.550126723387044 -2 7 -15
3379 1 -0.01162023076133193 -14.822001089531563 -13.2075187847205 -7.743539887344659 -2 7 -15
3329 1 -0.03451933028700443 -9.164151546016004 -15.36611569851586 -2.1933049541889553 -4 6 -15
3327 1 0.209950873039312 -9.68820203834336 -15.643685320361204 -3.445499913220058 -4 6 -15
3321 1 0.2427535105967355 -9.731287918049679 -16.22094062332094 -5.81313678477482 -4 6 -15
3320 1 -0.004420715914924305 -11.211878324390014 -16.235123880583302 -5.770505974480463 -4 6 -15
3827 1 -0.002009456374554887 -10.077501035641086 -15.173889282138674 -1.0333027463066606 -4 6 -15
3441 2 0.05680074659179384 -13.267429350794501 -11.971437591084657 -3.959835471192481 -2 6 -15
3947 1 -0.007674087646920742 -13.866949375892732 -10.320032572186015 -1.0178614986268621 -2 6 -15
3887 2 0.02072257792736586 -10.035807666057845 -9.67810818988094 -6.569947267394934 -2 7 -15
3382 1 -0.03778335330721454 -12.601979189392813 -12.303819399980199 -6.769724244817151 -2 7 -15
3380 1 0.007182550815760446 -12.51214182198841 -11.437614721928039 -7.742557739718876 -2 7 -15
2765 1 0.02051000360285001 -12.28726890840642 -15.871598972525316 -6.6126733593450835 -4 6 -15
3944 1 0.004061829461756108 -14.866350804983336 -10.084055296085683 -0.11815739825154228 -2 6 -15
3381 1 0.007150374764536527 -13.471956033309398 -13.452215631673104 -7.118277336202792 -2 7 -15
2830 1 0.0006816321690088951 -14.952202484691103 -11.773380592173021 -7.978571393801234 -2 7 -15
2768 1 -0.06136024855611726 -9.127643295402667 -16.088539469705697 -7.043043413248275 -4 6 -15
3948 2 0.0139345164366121 -11.602412892992865 -10.820473986008775 -1.7340358256313522 -2 6 -15
3945 2 0.008905687637611324 -12.774744037501067 -10.436116545284973 -0.5141405109273606 -2 6 -15
2959 1 0.02262231590392998 -13.739477666128467 -10.95880331893996 -8.120771292199379 -2 6 -15
3323 3 -0.4843776105296515 -8.746027591302784 -16.065348910605007 -4.657091733825073 -4 6 -15
3439 1 0.07534927582271042 -14.76283948521713 -9.838439447030186 -3.3813510317719637 -2 6 -15
3315 2 0.04453951674721104 -13.71226955474622 -14.265400020851645 -6.272003376425615 -2 7 -15
3437 1 -0.09870369239318022 -15.527142575116796 -9.219043896284564 -4.267251142686879 -2 6 -15
3444 2 0.03391632038977162 -12.99270477315037 -15.355002360671877 -2.774225614486334 -2 6 -15
3313 2 0.04215815894726446 -11.630075951968788 -9.51005807875482 -7.94281220432486 -2 7 -15
2826 1 -0.006979094971407675 -16.252772496666267 -10.816527329164822 -8.2408966477151 -2 7 -15
3885 1 -0.002901756431763648 -11.488547880274337 -10.628643187345297 -7.355367971192401 -2 7 -15
2762 1 -0.01392408110373104 -11.638861645860402 -15.940132211087054 -7.82279953953667 -4 6 -15
3891 2 0.01824160467565425 -8.60014677382567 -11.481130102076962 -2.779583048083429 -2 6 -16
3322 1 -0.0197055708405922 -11.581807647595047 -16.68416637124184 -4.5010979774344895 -4 6 -15
3884 2 0.009182941570180384 -9.224150251263266 -10.320428392394842 -0.0175374413440739 -2 7 -17
2894 1 0.3118308168573718 -15.17487694004953 -8.412450246530055 -5.526410905956814 -2 6 -15
2763 2 0.01793240592321102 -13.258742236396316 -15.876167991187172 -6.130885736615728 -4 6 -15
3512 2 0.009884689917321729 -10.68409027117955 -8.976469822988356 -0.599794934846035 -2 7 -15
2766 1 0.006783206812491737 -10.119552443898 -15.712431426032945 -7.953733049599293 -4 6 -15
3377 1 -0.004128926412030852 -15.932715122801431 -14.282622005096911 -8.329513980686707 -2 7 -15
2895 3 -0.473414273528195 -14.00505806921416 -8.450586984135905 -6.0400992415168195 -2 6 -15
2840 1 0.003549568988219946 -4.966551266047921 -10.766502582450105 -7.795504920385357 -2 6 -14
3339 2 0.01866897120496335 -5.789658352465957 -16.696308734674393 -1.2656267120625049 -4 6 -15
2839 2 0.01759671641772184 -7.055985797108937 -12.086502486078555 -7.951174837569947 -2 6 -14
2996 2 0.01679467343154091 -0.03626725248868506 -9.963339054181414 -5.048321005221938 -2 5 -16
3451 2 0.03891772688430044 -6.737405679749302 -9.532081892794231 -0.8152528629733096 -2 7 -15
3345 2 0.02968189978492242 -2.678789712868359 -16.406717094531288 -0.19732955616357514 -3 6 -15
2250 3 -0.4670638046568127 -3.953075956893738 -14.046447413400397 -4.221943424029439 -4 6 -16
3333 1 -0.005703050393385437 -7.596780387903995 -15.58593044858011 -2.069980628722413 -4 6 -15
3458 1 -0.01939924452400355 -0.3177875141152169 -11.59666818734907 -3.186195790827872 -2 6 -16
2306 2 0.05724444416370906 -8.185960213462911 -16.27078941199974 -7.311610995712664 -2 6 -14
2837 2 0.002901563420888563 -6.229630366060227 -8.957615714919914 -7.976773610821684 -2 6 -14
2771 1 -0.01940845178381275 -2.954873445168308 -16.258512001626585 -4.508282904659708 -4 6 -16
3961 1 -0.006227857121488767 -1.2234643796003313 -11.099829185164062 -2.11303213800158 -2 6 -16
2908 1 -0.08671075246165927 -4.395658555160169 -11.945879189275825 -5.7632973154677245 -2 6 -14
3833 2 0.01277768942195892 -7.740992370273148 -16.560714497592983 -1.5117081294806518 -4 6 -15
3338 1 -0.01179590966154125 -5.736556414363873 -16.045779549310637 -0.39086012098509515 -4 6 -15
2847 1 -0.0708741884974721 -2.9010938892941716 -15.036041183430676 -6.454714080440171 -4 6 -16
3259 2 0.08951429871801486 -7.181039799810324 -15.96316803868434 -3.1765942320380014 -4 6 -15
2843 1 -0.008511141421542676 -3.403803169262631 -12.818178983886506 -7.859399936503277 -2 6 -14
2903 1 0.01205716021749199 -4.039539339419308 -11.643580444555534 -7.213299265841879 -2 6 -14
2909 2 0.05166296286478937 -4.953321559066092 -11.37570217211511 -5.222163355809781 -2 6 -14
2851 2 0.04210693848590141 -1.8510387254267817 -15.243719706758139 -6.680199256822865 -4 6 -16
3960 2 0.05577191019832941 -1.9899664877019085 -10.352975031465668 -1.9104857162367241 -2 6 -16
3964 1 0.02255616162239459 -0.8105913239890591 -11.491489581164524 -0.8235639314330941 -2 6 -16
2844 1 -0.03962702370459766 -3.3024297002690606 -13.575080942309546 -6.643172321387378 -2 6 -14
2845 1 0.2315940919996139 -4.133501537166172 -13.188536133853967 -5.5180078371809325 -2 6 -14
2846 2 0.04781949777386606 -3.7271158667627238 -15.534511348524997 -7.03701352629745 -4 6 -16
2848 1 0.2367686580479643 -3.080295168925752 -15.06156594402338 -4.907892912606964 -4 6 -16
3452 1 -0.0134338667282978 -7.265275501753982 -8.60477973908297 -1.0335175656941855 -2 7 -15
3457 2 0.03062300108408681 -0.6050352932156209 -11.933980539450062 -4.075957764595069 -2 6 -16
3335 1 0.01115078250218803 -6.767982387353971 -15.222146358199522 -0.7146310932475675 -4 6 -15
2925 1 0.0004847309824117241 -0.18737840850053908 -8.480522432469135 -7.023982598369868 -2 6 -16
3528 2 0.0186779325409132 -0.26279195841258735 -8.652079219484557 -3.944560189940901 -2 5 -16
320 3 -0.4856739099602388 -14.020846062051564 -13.396141404567043 6.306520533655698 -1 3 -16
3882 1 0.007761907427581451 -12.375618126116832 -15.113973448961238 3.785780251551305 -1 3 -16
3878 1 -0.004986801374001058 -11.570494227485394 -14.787772702249875 2.5655905194267095 -1 3 -16
260 1 0.2197678934096307 -12.545366291812572 -13.228227337795067 5.682556329822807 -1 3 -16
261 1 -0.008373745508373859 -12.224003855778152 -13.88942330186168 4.328618627209788 -1 3 -16
325 1 -0.05838001147376096 -11.384553306785199 -12.9924199966883 6.255640582886709 -1 3 -16
262 1 -0.0199754020584808 -11.297461267197825 -13.365650690224673 3.3243985523939235 -1 3 -16
263 2 0.01802221851403803 -11.19174669411546 -12.465940924415047 2.8689333731828257 -1 3 -16
317 1 0.2558170386837496 -14.039744848028063 -12.89519312638622 7.699399417980436 -1 3 -16
3883 2 0.0160643827111446 -12.917970267948219 -16.26659937067228 3.986847392871856 -1 3 -16
327 1 -0.01158608098182363 -10.22555401242963 -12.965706782665354 5.395399178293638 -1 3 -16
386 2 0.04204805841844156 -8.886396361308107 -10.855004052204334 6.035895856566299 -2 6 -16
192 1 0.01055557658159023 -9.928702787761166 -13.609361304878455 4.081082772368918 -1 3 -16
769 2 0.02738443911381606 -9.355791947898572 -12.478885621236298 5.7672750778582085 -2 6 -16
324 1 -0.002592559143071643 -11.454140792033478 -12.477604469322184 7.829159096045812 -1 3 -16
3803 2 0.02382791266776813 -14.848469693811056 -16.147328746332793 2.6628289657813644 -2 4 -15
194 1 0.003008264707832197 -8.857042205791828 -13.782723360990712 3.1031975358089374 -1 3 -16
266 1 -0.02036696367439742 -8.511140392436705 -9.878926743227506 0.7661536402063003 -2 6 -16
314 1 -0.0425135153174639 -15.213339056962514 -12.676224637118144 8.237011198542147 -1 3 -16
177 1 -0.01387227878891754 -15.938626408995272 -16.49387930709046 3.1635365735754184 -2 4 -15
3875 1 -0.003198188331192224 -12.041591562266335 -15.05416698005852 1.382087475791228 -1 3 -16
3886 1 -0.02332728566762209 -9.250357694625569 -8.595781608580564 0.6760490633805178 -2 7 -17
390 1 -0.03486393632951199 -9.23693423017257 -10.17070191699302 5.312970371616666 -2 6 -16
766 2 0.02342145142284792 -9.838085218651557 -15.699505959184675 7.458069476320482 -3 7 -15
329 1 -0.02254640451235234 -9.14705209737485 -10.39584277678197 3.793036991467984 -2 6 -16
323 2 0.02504831138918485 -10.85316541003641 -11.748558282574407 8.342011608827393 -1 3 -16
3819 1 -0.008673368302311055 -8.661625924228533 -14.584254135114216 0.846907800784445 -1 3 -16
196 1 -0.03256962661820641 -8.781112344833547 -14.945187149449522 2.299857443388117 -1 3 -16
72 2 0.04792255198490662 -10.033350433883998 -16.242246287983416 5.821590025007957 -2 7 -16
328 2 0.02315886920115643 -10.34787552073228 -10.41106092172605 5.353614531102355 -2 6 -16
775 2 0.01528951375343659 -9.642504521048814 -9.880202954439197 2.948529455773771 -2 6 -16
767 1 -0.01793843850337458 -8.896754039145126 -15.451127306286244 8.008852570848804 -3 7 -15
3946 2 0.01584068235107804 -15.906052563824282 -9.745028440171522 1.6123660216623523 -2 6 -15
326 2 0.02286627252969588 -10.78611800656199 -13.335246087377723 8.118971456336133 -1 3 -16
178 1 0.02829458132710008 -16.263493858906365 -16.320935148327493 4.568067381120455 -2 4 -15
198 1 0.1721321560429859 -8.429143452995206 -16.158637163253164 2.7101489174984255 -1 3 -16
3943 1 0.01284640379291465 -16.10470711694909 -9.767990398931994 0.4415618976764706 -2 6 -15
3820 1 -0.004333329323741001 -9.417562870196795 -15.576140418581232 0.15080097973878467 -1 3 -16
311 1 0.01986564061927024 -16.515347658471814 -12.746861501160316 7.738618526229466 -1 3 -16
312 2 0.02617994336945374 -15.977840861286275 -10.332092194855965 7.502093650931985 -1 3 -16
3873 1 -0.02117686115683266 -12.46848243371326 -15.289542578274196 0.2845180736923823 -1 3 -16
3872 2 0.02003714455437036 -13.545365994962383 -15.677921859400271 0.22162875460115986 -1 3 -16
778 2 0.01947784787326697 -7.486045600043772 -11.851948445287723 0.2088513727860659 -2 6 -16
341 1 8.269079115711536e-05 -0.0939688349870193 -9.853647576548695 4.353598234652654 -2 6 -16
3906 1 0.003220238066530528 -0.5936950287739182 -16.205915172215384 3.986597902428273 -2 6 -16
3963 1 -0.009631236441308623 -0.22919677684071268 -11.230066274215822 2.0790566621788082 -2 6 -16
3817 2 0.01474008592562344 -8.212511385705525 -13.335159528013053 0.3306284470623449 -1 3 -16
832 2 0.03211276112339095 -4.165162003351217 -9.030827943583963 7.46632350751542 -2 6 -16
3334 1 -0.01016025765933531 -6.9687724178054244 -14.50901387509088 0.530228173635981 -4 6 -15
281 1 -0.0199753486447957 -1.6062810782312127 -12.517613217345527 4.951495326592624 -2 6 -16
3966 1 -0.008917339195742301 -0.3705652413246157 -12.059610938991188 5.793069003193829 -2 6 -16
284 2 0.03964366750406731 -2.486801886054974 -11.934263013927964 4.422826344677584 -2 6 -16
772 1 -0.06332140116090396 -6.68328595985109 -11.141029198002652 5.653061771324276 -2 6 -16
389 1 -0.0009379941835355038 -7.962397145174075 -9.263013189457931 5.54822181313603 -2 6 -16
282 1 0.00432639169514417 -1.2251958928138034 -15.193320766807643 5.037803835596383 -2 6 -16
267 1 0.0009513433293086397 -7.827214107353889 -10.330834453251429 3.4103956728628795 -2 6 -16
269 1 0.00205591962808141 -7.73115012632571 -10.40161669498445 1.884660528004798 -2 6 -16
827 1 0.2533129110104723 -6.769185405413554 -12.16890246697672 6.514321997033248 -2 6 -16
203 2 0.05443422776823224 -4.000742488640772 -16.482169502161792 4.700082751485611 -2 6 -16
193 2 0.02794956424526842 -7.9980161914731704 -13.218209334896436 3.5602721380528846 -1 3 -16
3340 1 0.2463063769336291 -4.949443595070289 -14.528713693320181 1.4465703849064517 -4 6 -15
768 1 -0.03426878023561648 -7.678758995395455 -14.57921150743975 7.434664185584072 -3 7 -15
771 1 -0.06437558750735939 -6.231862000597758 -13.194803152972439 5.692706095490916 -2 6 -16
825 3 -0.5233545001544219 -7.254561791956369 -11.982421885565714 7.908697680389536 -2 6 -16
280 1 -0.009673025555682464 -2.4252334974919516 -15.489094142786191 5.668209271181838 -2 6 -16
706 2 0.05557712862999609 -6.0885687782814495 -15.342867278294094 6.204431015603151 -2 6 -16
770 1 0.01640714232479277 -6.457527515315926 -14.597121431269453 6.633655757968928 -2 6 -16
3343 1 -0.04403178770246802 -3.101279576040677 -15.638640938119675 0.203409152631565 -3 6 -15
3962 2 0.03403581639553103 -0.9644957104716152 -12.08882581967477 2.2596220534470133 -2 6 -16
283 1 0.002314330379285421 -1.101077695572674 -13.75422226688841 4.5033690892445275 -2 6 -16
3346 2 0.01910705722667379 -2.8733778075444203 -14.855051577763776 6.395832992457939 -3 6 -15
3969 2 0.04200776649727922 -0.015939588004061783 -12.84546034641566 6.559881894166623 -2 6 -16
777 1 0.01991357385748188 -6.69338199661956 -12.649064116765551 2.1788132681236196 -2 6 -16
268 1 -0.01165169581672672 -7.120709849340477 -11.526774831655043 1.378362294623596 -2 6 -16
773 1 0.06438047821598594 -5.680737764956712 -12.978302180171395 4.408176825067828 -2 6 -16
3341 1 -0.03180508222052394 -4.578269703572456 -15.519439823545525 0.41741853704715015 -4 6 -15
1290 1 0.2213582833420308 -7.832948427759496 -13.408061776441563 8.269344915819532 -3 7 -15
3835 1 0.01426609065385754 -0.8408035395718302 -16.270074806623906 2.5986986297267562 -2 6 -16
774 1 -0.001760524211585058 -6.931030258283204 -11.254102133861482 4.227785416733017 -2 6 -16
776 1 0.01661716678601503 -6.142707100162586 -12.011382236134558 3.299193968104627 -2 6 -16
3770 1 0.2165907955136116 -2.8226635731074885 -14.940755836186293 1.5330868913445745 -3 6 -15
197 3 -0.4509570931705876 -7.918484646055869 -16.399867496762432 4.293956977086291 -1 3 -16
3336 1 -0.02094842489102985 -6.127378336984995 -13.898185054011883 1.5334272823226858 -4 6 -15
828 1 -0.03721299485925504 -4.828332373407895 -9.688679605981674 8.126908420235763 -2 6 -16
3332 3 -0.4813730100792445 -3.8544093418440992 -13.940384616049133 2.2224046542695737 -4 6 -15
206 1 -0.05745029505213011 -1.8928574888327658 -15.536239572148359 2.055667961124902 -2 6 -16
888 1 0.03212762370876923 -6.218664903812198 -9.384925818023476 7.469063048214498 -2 6 -16
342 1 -0.003797789302590761 -0.37128734515150585 -10.69675283783541 3.370553290683224 -2 6 -16
887 1 0.03595560537105287 -6.935012480877332 -9.891587318418361 6.246748540252208 -2 6 -16
285 2 0.0303249056728489 -0.8996390439459594 -13.63405627796825 3.2378596274604927 -2 6 -16
826 2 0.03654156823687749 -4.667174333981442 -10.756389508207974 7.906467133870795 -2 6 -16
1285 1 0.02008568428209875 -7.904337659162831 -16.670636833107775 8.177540793853982 -3 7 -15
313 1 -0.005684452104844355 -14.823485841862631 -12.275138710781762 9.580965232544857 -1 3 -16
1793 3 -0.457398085620692 -13.802435878213306 -14.694966686075677 13.6617078712649 -2 4 -15
319 1 -0.004858855419405637 -13.276345914619753 -12.008625028651227 9.648456757996474 -1 3 -16
1797 1 -0.06983250686131104 -12.993823830286695 -13.465189933675616 11.627998120568245 -2 4 -15
1864 1 0.2289001414467765 -12.995459797696487 -13.634738930492185 12.893969311551734 -2 4 -15
1798 1 0.005230166687274935 -12.937508544280101 -12.073204134241342 10.972377688490015 -2 4 -15
1796 1 -0.005121918224003312 -12.231083041564315 -10.82075789533917 11.524142248595735 -2 4 -15
1861 1 -0.03594248873154335 -12.866442895127106 -12.20734440301694 13.406820839290523 -2 4 -15
1863 1 0.0006859768811435067 -12.256676761833821 -10.908564165223003 12.907472608937294 -2 4 -15
1799 2 0.05133088346522531 -13.034553908769759 -14.424484449560886 10.9940936411435 -2 4 -15
1792 1 0.1928230930641998 -13.888565095815295 -13.867353265992874 14.992099001362414 -2 4 -15
1858 1 -0.04697175393372272 -13.181711073723072 -12.266939512295952 14.98698986420155 -2 4 -15
1867 1 0.01064306156827528 -11.088080038739799 -10.046932015798768 13.534354251534449 -3 6 -16
1731 1 -0.03138687881190178 -14.537136218841457 -14.533678987995351 16.130612478746034 -2 4 -15
1857 2 0.02764761602906195 -12.180305181959895 -12.468702591441689 15.409875034632195 -2 4 -15
1859 2 0.01266642893328246 -12.750100286222509 -13.887806612889666 15.173170274020011 -2 4 -15
1855 1 0.005156296184892686 -13.867659353712225 -11.091452013460458 15.711334488498725 -2 4 -15
1856 1 0.003479437904498058 -15.287023533973809 -10.721214123085685 15.453100538945332 -2 4 -15
1869 1 -0.01238612663092728 -9.92996842512087 -9.562262853073278 13.24354233337888 -3 6 -16
1860 2 0.02666321167089905 -16.073350329110948 -11.196008740611028 14.588573873099286 -2 4 -15
812 1 -0.008064090539847354 -15.64546362236886 -12.390960101389656 10.603953126166484 -1 3 -16
1871 2 0.0289327776930784 -9.198901391000938 -9.912418708175258 12.500374871900199 -3 6 -16
1870 1 -0.0247945136747889 -8.989825905534396 -9.125858021956105 14.356882006323993 -3 6 -16
1728 1 0.03262064365551566 -15.502968761306292 -15.625672455581952 16.167464982521 -2 4 -15
1865 1 -0.0148916665390187 -11.633815926379821 -9.436933024827734 14.74669126641353 -3 6 -16
879 2 0.03093155814970704 -15.618242556288163 -12.159674470926385 11.61797176516678 -1 3 -16
2305 2 0.02588729596906257 -10.936607825965607 -8.946431181978957 11.168858418582179 -2 4 -15
1232 1 0.001423024057381619 -10.254360208542115 -15.77747809062396 15.077812297889432 -3 7 -15
2308 2 0.02851267939349377 -10.603833369864184 -10.564544225806248 10.363641391421929 -2 4 -15
2307 1 -0.04330411938629949 -11.207076173887861 -9.906908543693332 10.98479213428871 -2 4 -15
1231 2 0.03019848765118721 -11.253990279307986 -15.183508514793926 15.511678201773325 -3 7 -15
1228 1 -0.01110174488537694 -9.611509983242103 -16.059814428780903 12.304568169679534 -3 7 -15
1229 1 -0.05022511586930733 -9.567067706206693 -15.401772093440384 13.773747107076852 -3 7 -15
1854 1 -0.0561746242079224 -15.560974900217708 -9.913442657201267 16.54121819347362 -2 4 -15
1294 1 -0.002607631032162543 -8.57646973491196 -15.519412600442303 11.692691782932114 -3 7 -15
1234 2 0.0192291782317053 -10.494373293971401 -16.65962246390553 15.412065648745743 -3 7 -15
1754 1 -0.06558650612160574 -9.223883790346182 -15.254810172257427 16.112045555486777 -3 6 -15
1292 1 0.001153304606401801 -8.898088705088476 -15.036902277139705 9.338631883414225 -3 7 -15
1230 1 0.1841500835364594 -9.044069042630033 -14.26052688346298 13.696840496013946 -3 7 -15
1922 2 0.01715662002428332 -12.827773721582803 -9.639073506326511 14.793145896610795 -3 6 -16
1288 1 -0.06407347664908958 -8.459181197473121 -13.673459170204996 9.419527269445606 -3 7 -15
1751 3 -0.4723769350633504 -8.491546514784378 -13.147391949600367 14.875932095721796 -3 6 -15
1299 1 -0.002174771444154962 -8.46880165066422 -14.048474728900146 12.33992613455636 -3 7 -15
1752 1 0.240244801978808 -8.49161304960854 -14.129008452307433 15.995456454424934 -3 6 -15
321 1 -0.05356246911499776 -12.850610286176451 -12.55440417793676 8.40278503815527 -1 3 -16
1749 2 0.05125626272549053 -6.669271337633818 -12.05013908827383 16.287425607325698 -3 6 -15
2442 1 -0.04531914655158047 -7.086451625065101 -8.435993209726863 15.331915313616847 -3 6 -16
1226 1 -0.001198167616691847 -8.188859600543571 -15.995662664163255 10.29316757417644 -3 7 -15
150 1 0.003311411695693871 -4.29043353613893 -13.79851098655128 12.229339138713524 -2 6 -16
2375 1 -0.008099527242025967 -6.145206249355075 -9.278736675052212 15.948597199472754 -3 6 -16
1873 2 0.03316247632273538 -7.4171428161477415 -10.063861713270143 13.55500693750982 -3 6 -16
1291 2 0.04991242379415288 -8.358253612171511 -13.015297013474832 10.386562087078497 -3 7 -15
1872 1 -0.003184516778516026 -7.453583794639868 -8.928366047881768 14.066053839655769 -3 6 -16