LAMMPS data file via write_data, version 2 Aug 2023, timestep = 190000, units = real

3771 atoms
3 atom types

-16.721920056704324 16.721920056704324 xlo xhi
-16.721920056704324 16.721920056704324 ylo yhi
-16.721920056704324 16.721920056704324 zlo zhi

Masses

1 12
2 1.008
3 15.999

Atoms # charge

2523 2 0.04545292309039167 -12.680290095211928 -14.14511831126023 -16.255274632185465 0 7 -14
3061 2 0.02041177767229259 -16.04512406878722 -11.40418586481538 -13.195839473145684 0 7 -15
3073 1 -0.04645543937700219 -13.087774558666512 -15.015422817431702 -11.178305470436417 1 6 -15
3065 2 0.02909416286384248 -16.074205458619737 -13.656915437420272 -11.750976292015514 1 6 -15
3070 1 -0.02237368779176348 -14.197248685297827 -14.574217832627191 -10.455552795073864 1 6 -15
3068 1 -0.002236587890003226 -15.422917915849506 -15.305410620909278 -10.347326789762745 1 6 -15
3072 2 0.06274320540825648 -14.058698473742627 -13.746355235918221 -9.735006002483152 1 6 -15
3074 1 -0.009739999499707427 -11.718569819537123 -14.20107638078871 -11.10101885421307 1 6 -15
3076 1 0.04374865359941563 -10.879797755208275 -14.1027340544763 -12.441107980697057 -1 7 -14
3067 1 -0.02873550420781791 -16.497236799713722 -14.97551870904553 -9.268784012109146 1 6 -15
3141 2 0.3095598194449987 -14.11058433420665 -10.775319791220582 -9.902303784319301 0 7 -15
3075 1 0.01092234618063572 -11.156887746789755 -12.909811958110987 -13.18120027226392 -1 7 -14
2587 2 0.02607062900633665 -11.8542814628907 -12.177514001052758 -12.791911039104642 -1 7 -14
3077 2 0.02710560644868143 -11.998120279095552 -13.167896900108126 -10.860346939758092 1 6 -15
2069 1 -0.01942338132234599 -10.50962005969703 -12.768895690532752 -14.379692260984967 -1 7 -14
2068 1 0.008789234277054737 -10.703928357959013 -11.347385004540252 -14.920726644726045 -1 7 -14
2528 1 0.05754732540745691 -9.885415882720878 -14.976131731430767 -12.941972350602406 -1 7 -14
2529 2 0.06394130906544038 -9.644342220827129 -15.906853254147228 -12.414892732363953 -1 7 -14
2530 1 0.2817674666421962 -9.706413620010391 -13.70420848753652 -14.962071509909316 -1 7 -14
2531 1 -0.07760190923265763 -9.455532075157446 -14.813191406203467 -14.239601936413258 -1 7 -14
2590 2 0.03664603154115054 -11.307762954850393 -10.688500299347417 -14.283694763336776 -1 7 -14
3140 3 -0.6979257055359628 -14.512725116553423 -11.298876247340825 -9.349074816235571 0 7 -15
2073 1 -0.01771444303661803 -9.348466596173775 -10.572193098797868 -15.332622313806421 -1 7 -14
2067 2 0.02915575916226399 -11.292494266979963 -11.581597320679188 -15.775433899803799 -1 7 -14
3137 1 -0.07206240635050887 -15.769431571791548 -9.005249008952413 -9.108747565977934 0 7 -15
2064 2 0.03003303143865382 -12.935677252974248 -12.287933035579384 -16.696226466723537 0 7 -14
3078 2 0.03727606820306667 -11.294118524766626 -14.720108605480215 -10.211060296423257 1 6 -15
2527 2 0.05915909513733798 -10.918533092193643 -15.971092840824447 -16.056570044121987 0 7 -14
2532 2 0.1117882032090047 -8.676418681806123 -15.44136637445116 -14.645580401058897 -1 7 -14
2585 2 0.05136897188405056 -16.220447198769858 -9.020569917886968 -13.898341422694408 0 7 -15
2071 1 -0.02438687163442646 -9.565709591037232 -9.642249503501443 -16.364049065553747 -1 7 -14
2060 2 0.2929546751784383 -14.972469087182873 -11.233672918071514 -15.86701161004269 0 7 -14
2061 3 -0.6596283080080639 -15.01219839703544 -10.389175138983443 -16.244189820230016 0 7 -14
2593 2 0.2860289086357101 -11.095284927548896 -11.351431085051626 -10.603257716546992 -1 7 -14
2072 3 -0.6301041404772505 -9.063122740664898 -13.710443292569016 -16.389608897621287 -1 7 -14
2592 3 -0.6071786021022711 -10.226616360979206 -11.282956647317416 -10.264156058877694 -1 7 -14
3071 1 0.2444572256348401 -13.112187926058395 -16.21462014560937 -11.965722059479504 1 6 -15
3149 2 0.09770843674359773 -8.54352147739836 -8.679730609082975 -9.433217431363547 -1 7 -14
3138 1 0.2556266018952084 -15.609802569862712 -10.39571063784984 -8.795582798331566 0 7 -15
3066 1 -0.008029625715788139 -15.514851913508432 -16.407946622771608 -11.230148538498494 1 6 -15
3143 2 0.04534693301041321 -12.10917973527292 -8.443994324304365 -10.789710411089331 -2 5 -15
3588 2 0.06400795232446488 -12.476313229784926 -10.57805835086762 -8.697932166233663 -1 7 -14
3210 2 0.01472310677879785 -14.499454603780132 -8.888579894490396 -10.771435603948428 0 7 -15
3146 1 0.2634011533298559 -10.314735351005998 -10.937382422928575 -8.793318620996633 -1 7 -14
2070 2 0.3004485479335116 -8.407386923565182 -14.4026903076255 -16.3714094526893 -1 7 -14
2454 3 -0.6371417126957715 -14.463597418818615 -16.697469694585177 -15.921086183568244 1 6 -15
2662 2 0.3555526656812423 -9.014566437560806 -8.554823894304263 -12.178383299653438 -1 7 -14
3069 2 0.08272767899783726 -15.929548597535831 -14.595239137848184 -8.384676001165255 1 6 -15
2134 2 0.02652804421147368 -10.60932266672435 -9.340350314643626 -16.617431877829137 -1 7 -14
2675 3 -0.6636612093925153 -2.6455874776033217 -8.66745440603223 -13.412502248687927 -1 7 -14
3096 2 0.03022328369195806 -0.050277595081413134 -15.528608498136824 -10.613381941520096 0 4 -15
2600 2 0.01152359111666128 -5.314413920715802 -10.769606609170765 -14.034277378207651 -1 7 -14
2080 2 0.0435681821529675 -4.96642352817999 -9.254212738400717 -15.174123370101855 -1 7 -14
3597 1 0.01672881354637948 -4.80259838632967 -13.040328684884672 -8.647170437183064 0 4 -15
2548 2 0.04164381060776282 -1.9494426124320792 -14.241601605494926 -15.261107458316426 -1 7 -13
2598 2 0.04055021993287597 -5.80550338792687 -12.1844856754946 -11.233528667452052 -1 7 -14
2606 2 0.2853852158037832 -3.5839824659657435 -10.860187245391101 -13.985405053827566 -1 7 -13
2613 2 0.01844751049355938 -0.7261580906751525 -9.088225793086607 -10.595026583686087 -1 7 -14
3094 2 0.02988405063307483 -1.6799501790527307 -16.246930597501063 -9.802407611616168 0 4 -15
3602 3 -0.6671645186197951 -1.7694793549838674 -13.307199157689512 -8.493552212691279 -1 6 -15
2607 3 -0.6118580838008727 -2.9834004302007235 -11.55191796228296 -14.379023836348988 -1 7 -13
3151 1 0.01758049789895058 -7.705089367355573 -8.431010531667727 -8.790513008852905 -1 7 -14
2609 2 0.04372678856715727 -1.9741966751987954 -13.02794730853656 -11.387714466620967 -1 7 -14
2612 2 0.09106066520277981 -1.0784829419706057 -10.070337095227183 -13.371358419350551 -1 7 -14
3090 1 -0.02557754176236752 -4.3958026797069625 -15.8055172490447 -9.16802773167533 0 4 -15
3162 2 0.289733758205632 -1.5864100094105897 -12.427976136091615 -8.68001651950086 -1 6 -15
2610 1 -0.006927001610765933 -1.5581023417810633 -9.775692316416695 -10.80656845023801 -1 7 -14
2142 1 -0.009786823395055433 -7.250625177479226 -9.117673029375691 -16.30540091913167 -1 7 -14
2084 1 0.2305059552635973 -3.681893281582095 -11.92875424197338 -15.70865562904701 -1 7 -13
2086 1 -0.03633154516396379 -3.1554877862126 -12.937104755688345 -16.539323052835126 -1 7 -13
2470 2 0.05105374191708795 -6.17001166194509 -15.442089110233415 -16.183066309660994 0 7 -15
2604 1 -0.04623916503990635 -3.677093075734935 -11.471493269668533 -11.203555164295674 -1 7 -14
2074 2 0.2646466754876372 -6.942249216769419 -11.908682147551941 -13.678072948595188 -1 7 -14
2077 1 -0.0544257495352048 -6.9988434589263555 -10.076901748951789 -15.342141244739887 -1 7 -14
2599 3 -0.5982120499404221 -5.425474704574491 -9.556328966980429 -10.939820187434357 -1 7 -14
3159 2 0.09061865416244223 -4.868193639049426 -11.931792452965995 -8.521484149219747 0 4 -15
2075 1 0.2385948384744731 -8.084899430624125 -10.864180781006633 -14.821442075835908 -1 7 -14
2547 1 -0.018242510951046 -1.8687139231781154 -13.78923886712246 -16.219948061998565 -1 7 -13
2608 1 0.02417636268241084 -2.3626001260613365 -12.020873120783177 -11.236425995232683 -1 7 -14
3153 2 0.08553759271670554 -7.657441642934495 -10.916045713110739 -9.65213249209884 -1 7 -14
2079 1 -0.008272814868108436 -5.502051426623509 -10.294851460463919 -15.038813926482241 -1 7 -14
2602 2 0.03619915554750745 -4.5090329125549635 -13.032301445556607 -12.201952931676963 -1 7 -14
2601 1 -0.02714872818162405 -4.7699442731325545 -12.565361082632377 -11.192020561219255 -1 7 -14
3088 1 0.01914512577071679 -4.653181315535324 -13.561916525069282 -9.99859606263582 0 4 -15
2089 1 0.01088236425878303 -0.6132685411412168 -12.867972524386913 -16.109022075791476 -1 7 -13
2076 3 -0.5817228773893455 -7.902737181619558 -11.852121441687903 -13.654554141675732 -1 7 -14
2603 1 0.2623960453496444 -4.0231821040356985 -10.083759172816533 -11.031299994181518 -1 7 -14
2082 1 -0.05804792393964581 -4.898785972325082 -11.339313067440447 -16.115687283917563 -1 7 -13
2597 2 0.2745248222206197 -5.841667802242768 -10.097728872017537 -11.64345435166504 -1 7 -14
3152 1 -0.0008362191729694955 -7.675873093977185 -10.938571958203706 -8.550217703236559 -1 7 -14
3089 1 -0.00249931554602896 -4.385822872360079 -14.91780458915201 -10.285446392715683 0 4 -15
3091 2 0.02483010131241688 -4.1785359634315675 -15.280731742331323 -11.35689878877723 0 4 -15
2605 1 -0.004951343622632064 -2.8768713380395203 -9.279145038593922 -10.772460146049074 -1 7 -14
2611 1 0.006244880970289688 -1.3062564313021325 -11.10425129715468 -11.142306357392878 -1 7 -14
2674 2 0.3027410466615865 -2.306226243054682 -8.811986883714768 -14.257311778997321 -1 7 -14
3229 2 0.01256681263158671 -1.2733682460386593 -8.687487144307973 -8.751168670402713 -1 6 -15
2145 2 0.05563582237376023 -6.323581390671463 -8.533957802674523 -16.538714057737327 -1 7 -14
3134 1 -0.05771289286138268 -16.60082939076203 -10.87691148711123 -7.894527379530716 0 7 -15
4103 2 0.08212289238800365 -16.239106693816197 -16.52306376397521 -5.059712644606507 0 5 -15
4107 1 0.2428617539645266 -14.713086916801654 -14.956208964078085 -5.254114055891186 0 5 -15
4105 1 -0.06746564314843977 -15.321838241421604 -16.035039772934955 -4.587234988071998 0 5 -15
3586 2 0.01823076660590334 -12.560603246389201 -9.938129981221103 -6.329777526426049 -1 7 -14
4106 1 0.001825679256751912 -14.712322581594488 -16.418535427436343 -3.345545812004444 0 5 -15
4109 1 0.004237211038249273 -13.540180714471497 -15.75790575939225 -2.8494267981195684 0 5 -15
4110 1 -0.0161877329496825 -12.918903107432593 -14.727505830143452 -3.631015667840949 0 5 -15
3142 1 -8.830710965505861e-05 -11.544205396846765 -10.2104638239401 -6.769481797748291 -1 7 -14
4111 1 -0.06668623279702063 -13.55633931370105 -14.268359100174466 -4.8149920756371145 0 5 -15
3645 2 0.01845035769023215 -14.251334092855567 -10.579715905633828 -3.985085461515158 -2 5 -15
481 2 0.06638808921228796 -12.111733374775463 -14.091986802486488 -3.2658297277363753 0 5 -15
478 1 -0.02578132660644998 -13.142639790047891 -16.061562172105095 -1.3512892664138076 0 5 -15
16 1 -0.01445340491585975 -14.671509790170557 -9.924561577989204 -3.240263370366101 -2 5 -15
28 2 0.3202033681075287 -10.164328598172121 -12.605473220892554 -2.7369227368252695 -1 4 -16
25 3 -0.6965802632888837 -10.978226675421658 -12.212946032781675 -2.599331666459075 -1 4 -16
20 2 0.0801507217703441 -13.05144084805519 -11.991196394278385 -2.573688153150318 -1 4 -16
477 2 0.01423458635069264 -13.98436770001823 -15.967885831195371 -0.6213869047847153 0 5 -15
30 1 -0.06879662224296995 -9.907454590054716 -11.386983480009869 -0.41360796930130794 -1 4 -16
4112 2 0.04593994493443539 -13.065624112418616 -13.337706256820162 -5.288902153699863 0 5 -15
479 2 0.01291740354090415 -12.203797811139975 -15.485825936989126 -1.0943984355359826 0 5 -15
3145 1 0.003791628798225567 -10.359764493687866 -10.03993822889791 -6.065266271024188 -1 7 -14
17 1 -0.002652211100387058 -14.307633284085133 -10.350623248196845 -1.9438421006245097 -2 5 -15
26 1 0.2601197124655402 -10.995500098145547 -11.57611993542271 -1.192931814475388 -1 4 -16
19 1 -0.02725170038017852 -13.43042983859405 -11.609632965661973 -1.6789130519858666 -1 4 -16
3135 2 0.0914422851590133 -16.496031398850686 -11.96570615060075 -7.5331775680559785 0 7 -15
4116 2 0.07653211097591406 -10.819495962248387 -10.419751269535919 -3.843088945843631 0 7 -15
3650 1 -0.04116276328401043 -10.598770388095822 -9.522082288754397 -4.577747164481006 0 7 -15
3144 1 -0.08041242127737598 -11.529043973105836 -10.593984686896874 -8.11938738929245 -1 7 -14
3648 2 0.02323118939040865 -11.449387389949774 -8.810760907217885 -4.490932108593097 0 7 -15
3147 1 -0.0204263651292091 -9.141229392389477 -10.504475071111823 -6.618837091845404 -1 7 -14
3148 1 -0.02704703721812366 -9.12401065882768 -10.832488201755833 -8.01436412897417 -1 7 -14
32 1 -0.007220546502787304 -8.602660714322555 -12.148233697308504 -0.9513717516082243 -1 4 -16
18 2 0.008663666704839246 -14.088803826085774 -12.313936199601649 -1.1214999352501098 -1 4 -16
4124 2 0.3092563343846716 -8.927852332850115 -11.254794142163684 -4.207076069221306 0 7 -15
33 2 0.0505246748058676 -8.760057600716351 -12.834789155007375 -1.7984433359134249 -1 4 -16
23 1 -0.03163643800645781 -12.277265039030494 -11.23503060394926 -0.668980740875377 -1 4 -16
3646 2 0.2783786977793585 -14.874122683563094 -13.97815573773732 -7.004658198787494 0 5 -15
4108 3 -0.6300416905558921 -15.532927583524494 -14.331152711417737 -6.405716978123244 0 5 -15
3641 2 0.03577576108977239 -16.273785054048258 -12.396727606313123 -4.464612638837759 1 7 -15
14 1 0.001922133746743417 -15.030531784173387 -9.784130201013364 -0.8138769166149988 -2 5 -15
3652 1 -0.05751062739520547 -9.398866043108226 -8.774176622417391 -3.942503048792357 0 7 -15
3525 2 0.06203991641475583 -15.270778876592255 -16.67627481298745 -7.216337676122847 0 7 -15
3642 1 -0.04423994931986538 -15.679003059137745 -8.935378525038368 -3.4293075040633916 -2 5 -15
487 2 0.06395658299361393 -8.9232243357817 -14.793700627237127 -0.5056669679676359 -1 4 -16
83 1 -0.08206254028734235 -16.139382354231167 -8.989160099064254 -1.1429319734631271 -2 5 -15
486 2 0.2650548288817882 -11.05985033717717 -15.749735306141472 -2.258757359539591 0 5 -15
484 3 -0.628763896577618 -10.460908278393465 -16.544364579338314 -2.3826324486405817 0 5 -15
82 1 0.2402962645459634 -16.504217356244002 -8.531849196695688 -2.457516428555499 -2 5 -15
3644 2 0.01612918949340998 -15.578946486858692 -9.108217206942708 -5.69127690915144 -2 5 -15
3643 1 0.001798642677527025 -16.130859720010257 -8.506556589615716 -4.911657057374352 -2 5 -15
98 2 0.04560782062494372 -8.509126683831358 -8.850582860028041 -0.3059604765068088 -1 6 -15
10 2 0.008348406170623473 -16.709261920853827 -11.877102693054747 -0.7602830974086383 0 7 -15
81 2 0.03043816262039573 -16.68094101118096 -8.501498185088417 -0.32970304475633616 -2 5 -15
3225 2 0.005113188077668094 -3.26416165472927 -8.374683031100535 -7.390688181629316 -1 7 -14
4134 1 0.001835446435831372 -2.7359682571635235 -16.253874819081382 -1.5507398840194866 0 5 -15
4122 3 -0.651845078411834 -8.170165595973238 -11.037954463015994 -3.790364396255392 0 7 -15
3164 1 -0.02664363365871422 -2.135589382723128 -10.736109945764015 -6.874284738254301 -1 6 -15
4144 2 0.1026684861387719 -0.07765374068435575 -14.352972791832695 -2.7271980854290936 0 7 -15
3161 2 0.0379369688353069 -2.857953639893582 -10.60590083737438 -7.693064020876599 -1 6 -15
3661 1 0.0089477894734985 -4.784326021932055 -8.882649751059342 -4.52127307384594 0 7 -15
51 1 -0.004175670190516411 -0.11823362093054468 -9.756119167051095 -2.5142913861097336 0 7 -15
3600 3 -0.6198578691714968 -4.662862260331051 -16.361755504360612 -6.7252391929636195 0 4 -15
3659 2 0.06157582320446031 -5.682393919747059 -9.212840760502337 -5.128200585927827 0 7 -15
4140 2 0.06967276712530186 -0.6396010897628238 -15.479814717678613 -4.558001398105911 -1 6 -15
40 2 0.09001718152316872 -5.80338185112281 -9.726076486130289 -1.3688690556200693 0 7 -15
3666 1 -0.0292874450307877 -2.3591574253870484 -8.564531225601716 -3.235600228711274 0 7 -15
3150 2 0.06854094232115943 -8.237645521860617 -10.667548066869324 -6.033698062305922 -1 7 -14
4143 1 -0.03079793823645521 -0.7132349760711483 -13.501003450317032 -2.8258432515324117 0 7 -15
35 2 0.06456414333280928 -7.783480621182839 -11.387297951232757 -1.0160865515337436 -1 4 -16
3604 1 -0.01227592860999941 -1.071358788289127 -15.871658754793579 -7.210077052455876 -1 6 -15
4139 1 -0.01194373172917938 -1.0754861162164475 -14.584115388602651 -5.0172065959812775 -1 6 -15
3664 1 0.2077125807021849 -3.4025079731727343 -9.169867968972971 -2.4794754924789983 0 7 -15
45 2 0.3068271190816879 -3.5537421051626072 -10.34318830468927 -1.0682814926924193 0 7 -15
3601 2 0.06260994600579194 -1.7756699097523192 -15.830180370815498 -8.053328587915622 -1 6 -15
4055 2 0.03850673618371897 -5.35891241434802 -15.107761418064777 -3.018088344355332 0 5 -15
44 3 -0.6571980003516481 -3.1831073327402803 -9.545408122702604 -0.9665415289112288 0 7 -15
4136 2 0.05167793422800578 -1.296507960115494 -16.713500868304493 -6.474686565183479 -1 6 -15
4137 1 -0.0206711204470232 -1.20012830307749 -14.53523711672955 -6.384303784379332 -1 6 -15
3167 1 -0.03017925598583968 -0.44527856791100123 -9.05119036039271 -8.083151006102426 -1 6 -15
3163 2 0.01243608177116627 -2.5777210479797836 -10.233053952196235 -6.014338332741011 -1 6 -15
4129 1 0.2610180420940508 -5.017738580519664 -16.020931607807405 -0.524049370476394 0 5 -15
4133 2 0.2742350755092623 -3.1146057518745187 -15.239610575628458 -3.804728180738098 0 5 -15
3166 1 -0.009930404967248237 -0.6903619992265033 -10.229156942330464 -7.279644501401312 -1 6 -15
4135 2 0.08082237060703637 -2.098027260660271 -16.495061737306397 -2.4195020298680068 0 5 -15
3154 1 -0.01492772844706988 -7.081215192525057 -9.490424260403126 -8.289314763349495 -1 7 -14
4130 1 0.200733470727091 -4.805753021687999 -16.07144676518434 -3.0370034879406536 0 5 -15
3544 2 0.3469794502312212 -5.040204236842268 -15.836283052862415 -6.074744089322189 0 4 -15
4126 3 -0.6616553484099978 -6.493632127107995 -15.808333897791448 -0.7638029538919741 0 5 -15
3156 1 0.254351594758576 -5.937340923087181 -9.331883020326787 -7.496698761102907 -1 7 -14
3662 1 -0.05720459898608388 -4.604349328451852 -9.199601109242842 -3.15378769024995 0 7 -15
3598 1 -0.06126205089480719 -4.8429116086135995 -14.009548887437878 -7.578975824160619 0 4 -15
3658 1 -0.009080130862925638 -5.919513923015777 -9.663245600425219 -2.4609804125732064 0 7 -15
3155 2 0.06200911047953976 -7.047464265083379 -11.776378696439032 -8.1719275901335 -1 7 -14
3667 2 0.0268819928343325 -1.9086243045048974 -11.142973582582046 -2.3844876669788255 0 7 -15
4131 3 -0.585772019055631 -3.7843004940318257 -15.797838953696154 -4.168390251670475 0 5 -15
3670 2 0.01384073445201081 -1.7842395261787203 -11.291552493831201 -4.223959131809248 -1 6 -15
497 1 -0.007749470175614923 -2.1460119415136454 -16.19763328083628 -0.27870736580276995 0 5 -15
3654 1 0.2473638196691104 -8.246047814706126 -9.506264373187213 -3.6476821435425517 0 7 -15
4138 2 0.01766687293210264 -1.5878757176637368 -13.497333540454806 -2.145673593228859 0 7 -15
3660 2 0.06907498767310714 -5.868232019530548 -10.692978714582638 -2.766581011719757 0 7 -15
4125 2 0.3278630978103619 -6.646825543804723 -16.028096618982822 -1.634343399854572 0 5 -15
4141 1 -0.004520437169962137 -1.243437266087673 -13.396100289672075 -4.309074491747506 -1 6 -15
3657 1 -0.02403291061895507 -7.2288003507885 -8.87426467996005 -3.008442300616368 0 7 -15
3160 3 -0.6647291572846998 -5.208937594442331 -10.51106428827124 -6.910556697352559 -1 7 -14
3603 1 0.2535329946034114 -1.6445214318522272 -13.337761459056848 -6.994502976028459 -1 6 -15
3165 1 -0.0504176579631882 -1.885257551527532 -12.176890921638314 -6.287789361476778 -1 6 -15
4132 1 -0.1031618023501304 -4.165609282419188 -16.268078289844983 -1.6374491865263288 0 5 -15
3668 1 -0.007620383877400209 -0.7835607292301291 -11.000131569102994 -2.5377770217079885 0 7 -15
3596 2 0.07038646358601769 -5.064382891393697 -13.60153695105742 -6.561295247872913 0 4 -15
3158 2 0.2896662146604697 -4.506427510479324 -10.089290193196392 -6.532593785078739 -1 7 -14
3599 1 0.2593996149372653 -4.668340868783128 -15.378719937469713 -7.856822082717104 0 4 -15
3669 1 -0.006815741448464266 -1.7234530867789848 -12.248503782251332 -4.878681131447132 -1 6 -15
4142 2 0.07890732338677328 -0.18792384461169961 -15.164307267113138 -0.46135046585943185 0 5 -15
49 1 -0.02197924201740815 -0.9726930352941023 -8.368161194738923 -2.6027698263140824 0 7 -15
21 2 0.01941076298717563 -13.327630326460975 -10.476628993546479 1.0825042681453856 -1 4 -16
27 1 0.01687358897171131 -11.23631709648145 -10.248932119060006 1.3369930055802484 -1 4 -16
533 2 0.01795141377799032 -15.754032473452021 -12.50180676068496 2.7267598284933094 0 7 -15
540 3 -0.6274403695099224 -10.288232916292776 -11.627829543374007 4.047975330957916 -1 6 -15
29 1 -0.009439099217178365 -9.982363910834527 -10.582042608177456 0.7888753329053906 -1 4 -16
536 2 0.01711240906492845 -14.970341317105225 -10.55724268507978 4.504049237977101 0 7 -15
535 1 -0.01762398434384794 -15.696877143880096 -9.983457415017332 5.056532765619927 0 7 -15
483 1 0.009477741754260374 -11.361858674323033 -14.70457692806607 2.1668430761146595 -1 4 -16
541 1 0.232118324327332 -9.600849968675611 -10.239923196258168 4.251302891325422 -1 6 -15
482 1 -0.08210150907285715 -12.767159791352196 -14.774964433657921 2.4460622422477085 -1 4 -16
480 2 0.03226820093403388 -13.259958151121944 -13.735030552139824 2.488909716878041 -1 4 -16
485 2 0.04834181276047184 -10.758245285276827 -13.780260330226675 2.075843990262956 -1 4 -16
538 1 -0.02972330705269251 -10.045510293408503 -9.16807986850849 3.4769485770542197 -1 6 -15
1486 1 0.01995176078724072 -15.043869477250968 -15.407286157044807 7.213169296953377 0 7 -15
537 2 0.2889913380523833 -10.695692044301087 -11.722552503639076 4.892412338996446 -1 6 -15
15 2 0.0142490769836054 -14.89458158779363 -10.230091331472254 0.21968510951216969 -2 5 -15
609 1 -0.01124267488946582 -11.41941213999558 -9.420093405083398 2.6651689887514016 -1 6 -15
608 2 0.03225932593137608 -12.197204172019621 -9.835054201302123 3.2372519515580276 -1 6 -15
542 1 -0.04844354657684773 -8.523364907252464 -10.055499301837429 5.128098203319912 -1 6 -15
31 2 0.03044446120084392 -9.11400539539408 -10.409838065376679 1.3749663268678198 -1 4 -16
1034 1 0.248306348479586 -15.877893468358474 -12.762904439443625 8.159697143789066 0 7 -15
1489 1 0.005283577110997112 -14.047514865033659 -14.465803135877788 7.554128407252224 0 7 -15
1491 2 0.06749216079333764 -12.968322415271675 -14.749191831091695 7.693199937232282 0 7 -15
968 2 0.3001613817267623 -15.31448167316976 -15.216941876669148 2.788675012683901 -1 4 -16
34 1 0.02313221773094046 -8.546367600845729 -14.21700078519199 0.34347261044992256 -1 4 -16
489 1 -0.03009895499618049 -8.494334372906273 -14.75217635409569 1.6160041430340506 -1 4 -16
1102 2 0.007654212329385488 -13.959073669851257 -9.600652286977336 7.156522122074307 0 7 -15
971 1 0.260636310325744 -13.528669035386146 -15.973832274385522 2.6006444315314146 -1 4 -16
534 2 0.02644620385687952 -16.15488428410458 -12.51605414964024 5.305461756365889 0 7 -15
975 1 0.01103050813423472 -10.658081228968966 -15.968269883213452 2.096432818565205 -1 4 -16
970 3 -0.6554945220357111 -15.011842157745454 -16.102019210390758 2.8780779211519607 -1 4 -16
1041 2 0.02827397754947092 -12.494873692505735 -12.694608119128599 8.069554244019626 0 7 -15
1036 1 -0.07096674748784905 -14.53644987683636 -13.157484795285232 8.037659584055175 0 7 -15
977 1 -0.01040531261457487 -9.075759321977745 -16.116422111991348 1.9046290984118452 -1 4 -16
978 2 0.08253209479373029 -8.557927273846019 -16.56032609252861 2.766907424763644 -1 4 -16
13 2 0.01509134699197349 -15.603078562434655 -12.592584739348952 0.5159472817270422 0 7 -15
607 2 0.01933477115938858 -13.176284571190987 -8.751313110738627 4.564905606314559 0 7 -15
1483 1 -0.007057644166396735 -16.40066234099056 -15.040571367515453 7.353449941519665 0 7 -15
22 1 -0.02188834372400898 -12.342009161870774 -10.658184103668265 0.5632611294440439 -1 4 -16
1101 2 0.02064446433707926 -16.083846869067067 -9.059695207986275 7.879554642911283 0 7 -15
602 1 -0.00807353666036242 -15.339832094213708 -8.636928765448337 5.30572018032062 0 7 -15
611 2 0.01923675860424793 -11.867651362213348 -8.470359487095283 2.3075600929039575 -1 6 -15
12 1 -0.04369961261297922 -16.624979780538013 -12.528230638201478 0.16585347640092712 0 7 -15
1104 1 -0.01135331394675535 -13.660318449946523 -8.557405282748 7.32517296373398 0 7 -15
1048 2 0.3176655472460059 -9.368749675883722 -9.72316743272395 8.004678136231268 -1 6 -15
476 2 0.03801422624085202 -15.845570341512907 -15.067665802225388 0.9387533189399254 0 7 -15
1049 3 -0.6262579629225404 -8.708815668118302 -10.336419475620612 8.279191875615387 -1 6 -15
966 2 0.3399147635569928 -16.661644852014025 -15.623099063242423 4.091331227234268 0 7 -15
1037 2 0.003527388079171219 -13.75287432797089 -11.143781558599054 8.337964708188899 0 7 -15
1130 1 -0.02341397537522604 -2.3897478357305326 -8.402148011388688 6.480522731199503 -1 7 -15
36 1 0.01108773680871161 -8.167851222632281 -12.855115790800614 0.26810687113333537 -1 4 -16
630 2 0.04330332243442077 -0.4669636965996068 -9.777938479468077 4.5514637088404175 0 8 -15
1511 1 -0.0168241446940444 -3.23224688564963 -13.877642774458671 8.330027503792053 -1 7 -15
501 2 0.03780969344576814 -0.5345734662006175 -15.871777806212634 1.1107581151221322 0 5 -15
544 2 0.07816277952282716 -8.200982201267847 -10.964404315482692 5.715496016237379 -1 6 -15
498 2 0.02696477608855256 -2.286387849723829 -13.486029081907843 1.2495407440603719 -1 7 -15
562 2 0.05927510204873979 -0.7313724825062022 -8.978116683498039 0.36500662646387033 0 8 -15
1123 2 0.314045975473257 -3.7901846566344948 -9.266004305877809 4.826695481755004 -1 7 -15
979 2 0.3245901821690464 -7.948475920256998 -14.078552682012292 4.653211649494296 -1 4 -16
983 1 0.2831297346812299 -5.633509218934537 -16.341784497656437 4.361543393900804 0 5 -15
551 2 0.04145200607565785 -5.585731143750721 -12.244927100105771 6.015961614770409 -1 7 -15
624 3 -0.6086084208645419 -4.353449362539127 -8.769974773346645 4.345749554130772 -1 7 -15
496 2 0.07032060573498708 -2.576945320140766 -16.481778535586045 1.8800251859925283 0 5 -15
563 1 -0.08293639618603285 -0.11681731173624414 -9.146405537612717 1.245130121658445 0 8 -15
980 3 -0.6029921875073861 -8.194175014782143 -14.778090016129639 4.089057572238824 -1 4 -16
543 1 0.02844803566341388 -7.796437783263931 -8.853585923093382 5.164163871197273 -1 6 -15
558 2 0.3086768334269874 -2.5911583278863843 -9.51192359585043 1.544611094447783 0 8 -15
1058 1 -0.04511137997125894 -2.9939303115132003 -11.789850324504117 6.8851764403422955 -1 7 -15
495 1 -0.02542816484132479 -2.9886978667248565 -16.338586059891416 0.8209335307226676 0 5 -15
554 1 0.2648074850372063 -4.452538830122539 -12.299271245911012 2.721243404346971 -1 7 -15
994 1 -0.04459519655518936 -0.7825932720881075 -13.393903889888511 2.8935109037046067 -1 7 -15
499 1 0.003618460314246126 -1.9662934861226127 -12.755964085495732 2.0694140795513345 -1 7 -15
39 3 -0.6094214934007851 -5.961055907672344 -9.004546028393737 0.7795867746420067 -1 6 -15
982 2 0.3297449493949879 -4.4379802758623015 -14.804050534952214 4.338268905647697 0 5 -15
995 1 -0.002971112130905472 -0.090077809350038 -15.782438859802827 5.8217266618049255 -1 7 -15
1059 2 0.006872226616466661 -2.875920391041563 -9.381878059499021 6.098413420620208 -1 7 -15
490 2 0.07702066649824152 -6.1595975076208545 -15.340129468072249 1.7197827182406031 0 5 -15
556 1 -0.01107065532781698 -3.155638077255793 -12.326494108779574 2.987281718583763 -1 7 -15
559 3 -0.5847613894852638 -2.2936749310022932 -9.65750737981347 2.4744109615329126 0 8 -15
553 1 0.02297928748938378 -4.93287724672952 -12.120535975548549 5.109485545616597 -1 7 -15
561 1 0.2442127898224626 -0.7475631445249464 -9.429117900685027 2.441962888455921 0 8 -15
550 2 0.05817367992974468 -7.023054622655412 -10.806833664480727 3.236806194965647 -1 7 -15
1050 2 0.0546807954591607 -6.980645318131996 -8.657466750203058 5.858099730968181 -1 6 -15
557 1 0.02332824504475093 -2.6922715203076413 -12.10570506540105 4.36599117778612 -1 7 -15
494 1 -0.04458119580401171 -4.369215164826032 -16.078338649785007 0.7498681056430353 0 5 -15
492 1 0.00535685596248181 -5.09946912887053 -15.579209390108307 2.0205452688033825 0 5 -15
493 2 0.07322703930097289 -4.4824906660062815 -14.737434739593024 2.3628776146845474 0 5 -15
37 1 0.03212916108430518 -7.5823399624177625 -12.132668972541321 1.3034963090020828 -1 4 -16
989 2 0.3292718386509185 -2.231492067916163 -15.713022895470054 4.5507292918031945 -1 7 -15
1514 1 0.00045809642231949 -2.569951249210442 -13.233181472746976 7.230347171310501 -1 7 -15
993 2 0.01774245032022643 -1.0175174173386314 -13.390331204260841 5.6570579740494145 -1 7 -15
560 2 0.01923336126740469 -1.645572952319981 -12.105118467925992 4.525667896610136 -1 7 -15
545 1 0.2528139342208715 -7.995519310274104 -14.118848683434674 2.753987246261032 -1 4 -16
1062 2 0.01098160879941799 -0.48987924446490994 -11.17493227085416 7.477446038889825 -1 7 -15
1517 1 -0.001731041258764696 -1.4648085472753605 -13.87447774341834 6.5146570992487485 -1 7 -15
547 1 -0.008175502395214699 -7.409169342319773 -12.813816104390375 2.4924591517316745 -1 4 -16
41 2 0.3096246562929874 -5.182523448953089 -8.732632230935437 1.338781635849053 -1 6 -15
548 2 0.035135172275426 -7.480600010479235 -12.08706015104831 4.655181044276235 -1 7 -15
555 1 -0.001862521097795895 -3.5450693702218414 -11.992496662575425 5.385319527603034 -1 7 -15
50 2 0.0511395431306879 -1.6329288530012385 -11.80431279554411 1.6243554986065576 -1 7 -15
1518 1 -0.02773680406131687 -1.1120502372960417 -15.179720682216654 6.855652060534185 -1 7 -15
1516 1 0.2688785849880724 -1.7804431398873517 -15.819931949492798 7.94207367108619 -1 7 -15
38 2 0.07736749792827492 -7.338878231890175 -11.058469837695698 1.2642581170483196 -1 4 -16
549 1 0.003441744663278449 -6.945943772657859 -11.875174118373616 3.672967078246144 -1 7 -15
552 1 0.0151181086557951 -5.407050872333252 -12.139297669073457 3.8010558228517946 -1 7 -15