LAMMPS data file via write_data, version 2 Aug 2023, timestep = 1240000, units = real

3555 atoms
3 atom types

-16.721920056704324 16.721920056704324 xlo xhi
-16.721920056704324 16.721920056704324 ylo yhi
-16.721920056704324 16.721920056704324 zlo zhi

Masses

1 12
2 1.008
3 15.999

Atoms # charge

184 3 -0.6254975065501804 -12.736551509495069 -10.80934327502146 -10.449477415178213 -1 7 -15
124 1 -0.05966408566342573 -12.097888943037743 -12.056683370562208 -12.591659351453524 -1 7 -15
185 1 0.2325987150845537 -11.684043625993505 -11.4870990283594 -11.363447963258167 -1 7 -15
125 1 -0.02124111409423056 -11.198221104486676 -12.585211448499413 -13.559833610784313 -1 7 -15
187 1 -0.0416084329291413 -10.314338918015979 -11.37257007378096 -11.065089914590034 -1 7 -15
701 1 -0.005651371247324538 -9.766081563479469 -10.933656910669132 -9.717952331394681 -1 7 -15
69 1 0.001586843643229204 -9.816355179115869 -12.399127287412457 -13.216941067960619 -1 7 -15
699 2 0.3094553565956274 -13.428158104085457 -10.604500693923578 -11.00605714477625 -1 7 -15
700 2 0.02857528442818979 -9.580338429423456 -9.863746831995321 -9.891701104131528 -1 7 -15
121 1 0.001893748408673956 -13.578857368965304 -12.153325872034673 -13.05607355254326 -1 7 -15
118 1 -0.02119132246509512 -15.25848247391588 -12.92364728178041 -14.614423594687594 -1 7 -15
127 2 0.01134879962470395 -11.509290101962497 -13.026799349280001 -14.52825921188533 -1 7 -15
3875 1 0.00259640197515194 -12.82259523509076 -8.845551154861612 -14.53807879362937 0 3 -15
120 1 -0.01402589099255641 -14.006792127259152 -13.301527601375525 -13.789259650662268 -1 7 -15
119 2 0.01329595716140353 -14.196978524910381 -11.32456915081696 -12.706234785701621 -1 7 -15
3168 1 0.01989727446916297 -15.793788131785677 -15.650480081695182 -14.579075394822912 -1 6 -15
3169 2 0.02311820946318119 -15.002275066778019 -15.995278258576459 -13.774970666322165 -1 6 -15
123 2 0.01236438361003823 -13.215856687355886 -14.02547279179638 -14.112950910347147 -1 7 -15
3681 2 0.06654358033493735 -10.539314331069727 -15.324375404990182 -14.31203471260825 -1 7 -15
3873 1 -0.01167999581765258 -13.880053879640286 -8.876607774173223 -15.32266101222154 0 3 -15
3883 2 0.02718641120262794 -9.671826761624862 -9.278438148689752 -13.16127732090503 0 3 -15
117 2 0.02925974652471763 -15.194454902594686 -13.310662590254301 -15.617826560792585 -1 7 -15
3878 1 0.009857817789517491 -11.494548464338294 -9.052612648232815 -14.274198977284062 0 3 -15
3882 1 -0.02900898457291705 -10.680581911430036 -8.890170048355989 -12.925703359467121 0 3 -15
3880 2 0.0175357275140816 -10.327955349759186 -10.39586523461247 -15.35494152297704 0 3 -15
116 1 -0.005627232621471197 -16.15171225235015 -12.227671028955834 -14.103179042202338 -1 7 -15
3682 1 -0.03148815715763102 -11.478572651576043 -15.99946847380993 -14.230443719405235 -1 7 -15
3679 2 0.006104754875564963 -12.396958371194648 -15.445938448245174 -14.771344791333938 -1 7 -15
3170 1 -0.06002199617084104 -15.667402066287865 -15.329038590812772 -15.908885571314057 -1 6 -15
3736 1 -0.02875456232056251 -16.705802044011353 -11.495690601587151 -12.988994945560261 -1 4 -14
3881 2 0.02816701868212667 -11.32029677746058 -9.387863875589955 -12.166738846536902 0 3 -15
191 1 -0.01686856173546782 -9.341809270145378 -11.85990174660631 -11.99788197723584 -1 7 -15
3734 2 0.0678985028248235 -15.911935027931355 -10.828188825224672 -12.46944181190936 -1 4 -14
561 1 0.2545344496543533 -16.483453601760033 -12.19996115185619 -9.641057875827991 0 8 -15
3879 1 -0.008627259360411508 -11.238398401321678 -9.893107496663367 -15.418685815662275 0 3 -15
3173 1 -0.008611738761916806 -14.229736161180531 -15.847847467001294 -16.380164607121497 -1 7 -15
3872 2 0.01469431792430992 -14.826021852937115 -8.469843071204837 -14.953845363346941 0 3 -15
3627 3 -0.6036218623347358 -8.534823056669573 -16.51604447587241 -14.32330799844331 -1 7 -15
3877 2 0.3081397838107611 -11.527743259431933 -8.819058465773262 -10.47610453614908 0 3 -15
186 2 0.02191706344680665 -8.924074095331935 -11.577322171729366 -9.337306224460622 -1 7 -15
3684 2 0.0522382681161967 -10.064099574878473 -16.419174136976594 -12.024319660094577 -1 7 -15
3176 2 0.03394376815615319 -13.667273825961017 -14.940381118616509 -16.525920939935336 -1 7 -15
71 2 0.01683514027717514 -9.562083196195623 -12.615366800792811 -15.39327236833251 -1 7 -15
3172 2 0.02012871218273199 -14.015813101947403 -16.448469782146546 -15.40901080564332 -1 7 -15
133 2 0.01954681839082992 -8.69269617651494 -10.896390893781438 -16.13280024980903 -1 7 -15
3874 1 0.01898237184241464 -13.519696960037516 -10.187922304237485 -16.241708276998637 0 3 -15
3876 1 0.01171197792985812 -12.171225050701537 -10.430219935246113 -16.462269855989636 0 3 -15
70 1 -0.03048505187695703 -8.869506881977006 -12.782915804646233 -14.5516394288434 -1 7 -15
702 2 0.0346692126234029 -11.165458631996936 -12.968845339250661 -8.410533293340794 -2 7 -14
563 1 -0.03442004033724606 -15.605603543860491 -12.126851964673625 -8.480337046499367 0 8 -15
581 2 0.03622014750206548 -7.962705078373659 -14.08555673016656 -9.241516565201382 -2 7 -14
3641 2 0.04157353515137324 -5.943082151437961 -16.306467375973202 -16.041466641437395 0 7 -15
142 2 0.01394329229412455 -2.627892657389647 -8.64541832947172 -10.704588342204486 -1 6 -15
582 2 0.08701859428933531 -7.600769031291898 -16.349839354845837 -10.364688235102935 -2 7 -14
583 1 0.0006623811355318879 -7.845843744062115 -16.271948793448118 -9.321278379434666 -2 7 -14
134 1 -0.0178112537290804 -6.826072549004524 -8.466213068979174 -16.63022337753296 0 3 -15
3705 1 -0.0458509992591211 -2.5939891190816713 -16.35101759718132 -14.917518355238494 -3 5 -15
3710 2 0.04688986979363508 -0.8332649010438588 -16.675763589239367 -16.10746847986082 -3 5 -15
3700 3 -0.5702341994898532 -4.276668552911239 -15.752660701762991 -13.171421189009987 -3 5 -15
14 1 -0.06805732390789748 -0.09566995279852322 -16.266728463890797 -10.188334225354733 -3 5 -15
89 1 -0.0384645547206417 -0.35292233030864056 -11.982147784835181 -12.226997372176818 -2 7 -14
3751 2 0.0407791680114109 -5.0640414822928275 -9.014287336726783 -14.740521970912468 -1 7 -15
3697 2 0.3278503907677558 -5.063534286974433 -15.24337661534657 -13.004826951871369 -3 5 -15
3755 2 0.06290381230519514 -5.0254183506598205 -8.462655801000345 -12.501663348773622 -1 6 -15
585 1 -0.056760691476982 -7.568430529841388 -14.921859328800384 -8.807163130134553 -2 7 -14
3707 1 -0.01597718006572815 -1.7258891725554293 -16.1393131463528 -15.963335301043646 -3 5 -15
88 1 -0.03479328488457298 -1.3101731635151173 -11.795285009848204 -13.524834166134553 -2 7 -14
83 1 0.119351694455062 -1.025138250813615 -15.529837745253415 -10.723445911186907 -3 5 -15
598 1 -0.03397477102601692 -2.254138585926199 -10.988675918437963 -8.482447504342911 -2 7 -14
659 1 -0.01569985579693613 -3.287623279899274 -10.094319172282567 -9.021153760886701 -2 7 -14
80 1 0.02184816287194499 -4.93762272718855 -11.69175868282589 -8.550401209968687 -2 7 -14
3709 1 -0.008432901846119594 -2.0132507143307325 -14.870185118467516 -16.609935862408623 -3 5 -15
588 1 0.2809297299493982 -5.94468436372237 -14.571487955693122 -8.604841386325784 -2 7 -14
3698 2 0.04032606090080415 -6.3515772366963885 -13.981312122309038 -14.675642059512189 -3 5 -15
87 1 -0.004615043248569071 -0.11179212224085001 -11.553903305411056 -9.847058520607483 -2 7 -14
3766 1 -0.02420739088299109 -0.3751254984929297 -9.542120486311605 -13.9225577960545 -1 6 -15
3758 2 0.03324674529889161 -4.890349323013471 -12.696803485994563 -14.322268407904167 -3 5 -15
141 2 0.02648277503109348 -3.292033520766498 -10.117666679258555 -12.365661790705625 -1 6 -15
3704 1 -0.05289384139119045 -4.094077473841257 -14.56278557568802 -15.285699026894083 -3 5 -15
660 2 0.01585156047755683 -3.1405318700497515 -8.996597004461266 -9.019453596964176 -2 7 -14
130 1 -0.009709534417079975 -7.999266225499969 -11.47637329688943 -14.344859943905782 -1 7 -15
137 1 -0.02892541126298817 -5.824751007629878 -9.261356135607562 -9.08134204256907 -2 7 -14
132 1 0.02302823916622983 -6.958285457804786 -9.521577875318123 -15.42410068455448 -1 7 -15
3702 1 -0.01598632577842611 -5.3134651979086875 -13.54269647444606 -14.936568297098265 -3 5 -15
84 2 0.01987504701954026 -1.5932646811665359 -10.646542260001475 -11.094877645242951 -2 7 -14
3749 1 0.01604178295541932 -6.15027070802139 -10.083142792075199 -12.931831373052649 -1 7 -15
600 1 -0.02769880899849379 -0.7117701016522989 -11.021927315626776 -8.541396096318618 -2 7 -14
3706 1 -0.02729670743565762 -3.069965955677711 -14.05431462538762 -16.189868011886155 -3 5 -15
3748 1 -0.002621552224016374 -7.046620782100294 -11.284326692493808 -13.222900898015913 -1 7 -15
3763 1 -0.005681854528085225 -1.4516184290443244 -10.209099498742502 -13.45968150603091 -1 6 -15
3750 1 0.01270412002474691 -5.998151333827715 -9.658964059216862 -14.41000989557616 -1 7 -15
72 2 0.04786878093757631 -7.908663610777524 -13.452358759995887 -14.49474098423592 -1 7 -15
656 1 0.004049799620858198 -4.665968180291641 -10.428668282690573 -9.08510685408976 -2 7 -14
73 3 -0.4042305344149904 -5.240175042724467 -14.282293925103135 -9.673756565346517 -2 7 -14
129 2 0.03105602467557906 -8.331718796226914 -11.538912057746554 -11.864635950441542 -1 7 -15
3699 3 -0.3480202654837978 -2.157160291979786 -14.59033335207452 -11.646999960872185 -3 5 -15
131 1 -0.03183632074314249 -7.934047513108837 -10.49780341389199 -15.407432025899574 -1 7 -15
135 2 0.0441543114832267 -6.92832657298045 -9.374557582448146 -8.864287229415096 -2 7 -14
3260 1 -0.01281367825458709 -5.55843032442979 -12.875478926883352 -16.302961051830493 -1 7 -15
86 1 0.01945415883499861 -0.8410303306215101 -11.479010699753427 -11.015045801613198 -2 7 -14
138 2 0.02057986056242043 -5.4641105951757085 -8.492230606230313 -9.796438712983171 -2 7 -14
3264 2 0.01278786478665076 -3.945271536884679 -11.46820751258922 -16.26980768467174 -1 7 -15
3760 1 -0.01565890280897951 -2.6157253762533728 -9.601825075771552 -12.865112862880123 -1 6 -15
85 2 0.05529615047409728 -2.1231767000348034 -12.388076982180854 -13.518623376779496 -2 7 -14
82 1 0.2059674301748769 -1.4357699389671317 -15.833578755081724 -12.056698813114094 -3 5 -15
3703 1 0.2760383564026103 -3.535888441989268 -15.48366368810334 -14.478108156395477 -3 5 -15
3708 2 0.01417258655506879 -0.7189231154046217 -11.694569147385788 -14.41936773493894 -2 7 -14
77 2 0.02813820988458714 -6.016891204308454 -12.218140840905516 -8.403298516291287 -2 7 -14
3713 2 0.02497616729231862 -0.6069868517161147 -13.244530614796961 -16.64409027693382 -3 5 -15
1219 2 0.004362855534997382 -14.060829653738343 -13.007267752986772 -3.64354361490892 -2 7 -14
1220 1 -0.01700120950846079 -13.04022729612051 -13.057824783310476 -3.2411664235409807 -2 7 -14
1222 1 -0.007303481048434715 -11.869281938126916 -13.439523021989253 -4.098844616993958 -2 7 -14
1218 1 -0.0573442767866162 -12.614811092015087 -12.381401984600318 -2.092634892017165 -2 7 -14
1217 1 0.2631251291820312 -11.350559747866782 -12.611447872890707 -1.4028114721670566 -2 7 -14
1223 1 -0.02096138497376776 -10.576961136727888 -13.477213484135369 -3.667826350199779 -2 7 -14
1221 1 -0.03898935947131678 -10.357071984818186 -13.00617876410051 -2.2735503659784135 -2 7 -14
1215 1 -0.01413360932029621 -13.542977749164653 -11.365048926850369 -1.3958268951358954 -2 7 -14
1214 2 0.01481043751436896 -14.395621206800502 -11.05924838393295 -2.0195686264478905 -2 7 -14
1152 1 -0.035020295439702 -11.857098100250683 -13.32984573868252 -5.704998427912136 -2 7 -14
705 2 0.0186385036462761 -9.660738852272061 -13.590859290668515 -4.259585328775597 -2 7 -14
1149 1 0.006651539344317659 -9.824568922917157 -15.733167184594278 -1.9829338416346483 -1 7 -14
1153 2 0.01822230050449826 -11.005069884562344 -13.760717680711082 -6.320407721967682 -2 7 -14
1156 2 0.01789282218749961 -12.91388072184392 -13.841531730418497 -5.769647711922212 -2 7 -14
1216 2 0.05430982169764197 -12.943420478007369 -10.63703340297763 -0.8306984489328532 -2 7 -14
1148 1 0.001575397093080043 -8.8777190451697 -13.21159578145002 -1.8095071922047694 -2 7 -14
644 1 0.01274438959312548 -11.715007816961336 -11.950041001282417 -6.5010891294866315 -2 7 -14
708 1 0.0121371538082082 -11.441525393834372 -10.805521568200316 -6.052249778262861 -2 7 -14
584 2 0.01061154950760023 -9.211750172700242 -14.358408804423775 -7.316663155131695 -2 7 -14
692 2 0.01128235652943517 -14.57788815422855 -10.867990470345624 -6.369081308014593 -2 7 -14
707 1 0.004931219399205995 -10.697868607184684 -9.49753062464396 -6.189980084548002 -2 7 -14
1210 2 0.01457273639762226 -13.762699707903067 -10.955998678658917 -3.953105297197989 -2 7 -14
643 1 0.0231940919601939 -10.40918258324053 -9.656055308114667 -7.6088636503809335 -2 7 -14
1211 1 -0.03346793976360251 -13.70086016854444 -9.940179289167487 -4.377358345862125 -2 7 -14
1150 1 0.00583635710796534 -8.721859232715367 -14.871538110202854 -1.7203589276623115 -1 7 -14
1734 1 -0.0235356902693407 -14.867347482161138 -13.666008706718557 -0.6105912783361434 -2 7 -14
1736 1 -0.03853465198166795 -14.585849113366786 -12.231810286354783 -0.5554035878508754 -2 7 -14
704 1 -0.01106764968449091 -11.01332816344079 -12.118877584308912 -7.777748288532919 -2 7 -14
1147 2 0.02272765855091018 -10.743134259163755 -15.31192926024388 -2.3917437596223707 -1 7 -14
565 1 -0.007996043384222145 -15.13976699707628 -13.307774346124132 -7.698673455739148 0 8 -15
569 1 -0.03472984470340438 -14.415806615418168 -16.56844841012688 -7.3401965315958195 0 8 -15
573 2 0.01548213963772724 -10.586896336531629 -15.05752375706712 -5.465824579140499 0 8 -15
575 1 -0.03977519709171808 -10.752302944755609 -16.179781531155406 -5.533679525314887 0 8 -15
567 2 0.02142113298534205 -14.272183571418438 -13.441542906648335 -7.005204739490908 0 8 -15
1732 2 0.01730463954338086 -14.89861861376809 -14.126936324471638 -1.539867006847343 -2 7 -14
695 1 -0.01371902794056088 -14.396271049672537 -8.70642059534472 -7.62656966674033 -2 7 -14
693 2 0.04909585355514245 -14.454621631423201 -9.785981265306575 -8.036803209174193 -2 7 -14
570 1 -0.007041773557367632 -13.476849269302933 -16.338904403028454 -6.388935371357669 0 8 -15
694 1 -0.001379291647493317 -14.130663753625157 -10.021910366310067 -5.760280836143156 -2 7 -14
57 1 -0.002242176010988545 -15.754615747202898 -15.711050118225556 -7.204335465920428 0 8 -15
566 1 0.01108632511264602 -15.811945214711269 -14.421752426511352 -8.046101757252261 0 8 -15
579 1 -0.01087330278553306 -8.815869100024882 -16.589821283567773 -7.3608786698437765 0 8 -15
1730 2 0.006036433039882372 -15.646593707272622 -16.499924298139547 -0.8467022004008242 -2 6 -15
562 2 0.04786589324306106 -15.417596073856291 -11.130284619030578 -8.073718277713994 0 8 -15
58 2 0.01163534579080122 -15.36120952392579 -15.37814905717909 -6.114813566661713 0 8 -15
1208 1 0.2413136608316291 -16.175974923228207 -9.03310768265949 -0.4606957727908546 -1 4 -14
1213 2 0.05378077843211565 -12.833531992984824 -9.124640083266481 -2.6488294003988955 -2 7 -14
1212 1 9.643855870385132e-05 -13.112656598109549 -8.869688296599076 -3.688056168740104 -2 7 -14
128 2 0.04443063782773514 -9.94416600149107 -8.807287559832497 -7.9721689881653 -2 7 -14
709 2 0.03384314082516251 -10.190645635368575 -8.876098732035555 -5.477187406002737 -2 7 -14
59 2 0.02220616062112233 -16.662722649530707 -15.979009500644757 -7.14375341634151 0 8 -15
576 2 0.01695356448349877 -10.590622825240162 -16.53005346697161 -4.592521311069536 0 8 -15
696 1 -0.06230487976723403 -14.126669476734046 -8.755751046727816 -6.24094665227803 -2 7 -14
698 2 0.09090344734038497 -13.479308910298993 -8.414341650832023 -8.124483136781253 -2 7 -14
703 1 0.05117944709881284 -10.473008053394826 -10.918221479112614 -8.228020846683405 -2 7 -14
523 2 0.2400090203838426 -3.591795622275598 -16.65390472672392 -5.998843327545573 -1 7 -15
587 1 -0.01356927669787776 -8.273590287224025 -15.159899838786185 -7.4306141096946385 -2 7 -14
642 2 0.03715587799662605 -8.329357638431222 -12.72625937793205 -0.9868477914009031 -2 7 -14
1085 1 -0.009627932908594556 -7.231237328632633 -16.661818633382644 -1.133609355113676 -1 7 -14
601 2 0.09237423181422047 -0.2843156618374161 -11.725547297574462 -7.890286882699381 -2 7 -14
1173 3 -0.6192109169425818 -0.44347008372034613 -9.325603760566453 -1.309472716754517 -2 7 -14
1102 2 0.05237561935175131 -0.2627612751395113 -13.741695257002704 -2.4779710751469377 -1 7 -15
1170 1 0.2903864819864445 -1.0758848612018674 -8.529732475388494 -2.3993933158275795 -2 7 -14
1621 1 -0.06559597016143209 -2.561712620148554 -13.249683675533976 -0.12219292430305898 -1 7 -15
594 1 -0.01681784030774782 -3.919038717316834 -12.484592304021168 -7.98511820057111 -2 7 -14
654 2 0.3046273328137986 -3.8606726227493056 -11.40828181185591 -3.245393803290268 -2 7 -14
1092 2 0.0772534611119652 -4.015449016539767 -16.14892086708537 -2.6342877296799347 -1 7 -15
1163 1 -0.04403488061354845 -4.712620121535311 -9.230464221688015 -1.2838075874523407 -2 7 -14
1146 2 0.01558362419522308 -8.233586072642561 -13.467839649116932 -2.765195845646046 -2 7 -14
1095 1 -0.01474555670827539 -2.366295817725126 -15.196295714923135 -1.4142789818835106 -1 7 -15
1618 2 0.04149196517695448 -3.59933356997086 -11.388926448629865 -0.5963785950278822 -1 7 -15
1165 3 -0.5907469261561553 -3.647847359162496 -10.436171574947965 -3.180382468096874 -2 7 -14
1082 1 -0.02630089997660357 -7.351909419043786 -15.293487289050065 -1.5114145515549455 -1 7 -14
602 1 -0.03987858604465823 -0.5050188592311858 -14.934397740472331 -4.746641426751008 -1 7 -15
599 3 -0.6114017210833874 -1.5613863752368766 -13.146983676651796 -7.016573012096723 -2 7 -14
1090 2 0.01560863164966829 -7.936213167652844 -15.192077692031605 -5.1642116185743845 -2 7 -14
1155 2 0.03019869394016594 -7.983475014407467 -10.706280023445117 -1.9280383873002584 -2 7 -14
590 1 -0.05749910754293965 -5.543173037378531 -14.360607186022941 -7.267239093633475 -2 7 -14
79 2 0.05549380497386672 -3.418497015427777 -14.52170003455669 -7.685731934114112 -2 7 -14
1094 1 -0.01786485223326198 -1.952757303690256 -16.207674088852148 -3.2584065154742503 -1 7 -15
1158 1 -0.003233917397455217 -6.879098459817969 -9.938177012195169 -0.4101554401759794 -2 7 -14
1100 1 -0.001219580014283 -1.0761831344655084 -15.512499800244958 -1.0256523012423933 -1 7 -15
1097 3 -0.5621961456369611 -2.5216833342263674 -13.874174395198596 -3.857475045680124 -1 7 -15
648 3 -0.7207082222837515 -7.787750945172257 -10.803819861068495 -6.847400757047053 -2 7 -14
589 1 -0.02712753204666886 -7.5503613548635 -15.016363228048183 -6.1066565102566726 -2 7 -14
1159 1 -0.05441212920631228 -6.111942887160988 -10.448354272550135 -2.8229903418915585 -2 7 -14
646 2 0.3344702237335125 -7.690898069838455 -11.535023307983451 -7.220775436154058 -2 7 -14
647 1 0.001012918095736439 -6.551072264452508 -10.714290839781457 -4.169431096730519 -2 7 -14
1098 1 0.2345776122753321 -1.721235305070185 -15.123063787923064 -4.07877441982733 -1 7 -15
645 2 0.0605993086547064 -7.559911952007167 -10.435499118058802 -4.47162415292268 -2 7 -14
1626 1 0.007444472426158154 -0.36795111907247324 -14.530429142473949 -0.3401560839659882 -1 7 -15
650 1 0.2460572121234774 -6.467070188160974 -9.985858690980116 -6.592780078615405 -2 7 -14
652 1 -0.05737129952004198 -5.770329564298754 -9.142437448237972 -7.509003437846782 -2 7 -14
1099 2 0.2679159467375927 -2.1840257277397415 -13.267893929506128 -4.605112655392958 -1 7 -15
1619 1 0.2766643490405505 -3.0349233928444717 -13.991584994526878 -1.2362398752868629 -1 7 -15
1614 2 0.2544077523354639 -4.551307198194881 -13.06915947634516 -1.2536573539567897 -1 7 -15
593 2 0.04684623726690446 -5.5785700773193465 -15.056110778121193 -5.175504274637798 -2 7 -14
1162 1 0.2433735731146217 -4.869345143215123 -10.0061000587832 -2.436698710904365 -2 7 -14
586 2 0.04667106538418712 -6.081845793277767 -11.700427538870215 -4.447177819440825 -2 7 -14
596 1 0.2319018928316253 -2.5873582227058174 -12.20649785281829 -7.838519612225509 -2 7 -14
1084 2 0.06146637630528446 -6.512394979875561 -14.463674301809368 -1.393781473775306 -1 7 -14
1093 1 0.003581906043505171 -2.943881837840717 -16.29965569993603 -2.168977010701087 -1 7 -15
603 2 0.1012784320781686 -0.15234980323255423 -12.75329680541667 -5.5579517999109855 -1 7 -15
595 2 0.03661166807143301 -3.836578697234583 -13.806194786986739 -6.083050107101499 -2 7 -14
1101 2 0.04692999519936948 -0.49693166396351884 -16.347701828061794 -1.2294260833289623 -1 7 -15
649 1 -0.04186997267414222 -5.947775250632104 -9.790885367504407 -5.282605649807894 -2 7 -14
1157 1 -0.0204621501206174 -7.006094660733687 -10.31911388355984 -1.771857430251024 -2 7 -14
591 1 -0.005988197162937792 -6.186658151202907 -14.914627465728753 -6.029863911628307 -2 7 -14
1616 3 -0.6021229052247319 -4.3899631700108 -13.780563271284072 -1.8464357355496666 -1 7 -15
592 1 -0.008702466457452996 -4.106107426575137 -13.856332155081564 -7.15433753496168 -2 7 -14
597 2 0.2601173091320217 -2.13341709839081 -13.838653656641366 -6.629440382717389 -2 7 -14
1160 1 -0.02873078070810831 -5.603231511106977 -9.253809071080942 -0.2641395620537291 -2 7 -14
1087 2 0.04230805332156515 -5.017418901453601 -16.011216027811507 -0.9880397892008178 -1 7 -14
651 1 0.01380790113497313 -4.948111339999938 -8.798729419825936 -4.985781241870578 -2 7 -14
1096 2 0.2686019577910946 -0.1275922103671628 -10.18845857492365 -1.708038105039961 -2 7 -14
1161 2 0.05078286187610015 -4.554654636121177 -8.469846282577418 -4.006152436364479 -2 7 -14
1091 2 0.04145316562183926 -3.02042261746343 -8.675039652393908 -0.21245040952292518 -2 7 -14
662 2 0.01705314974070096 -0.3379873016353772 -9.920932706742155 -8.354827396546368 -2 7 -14
2751 1 -0.003316075559026807 -13.36760904420887 -12.678798584113908 4.769233767357264 -1 7 -17
2754 1 0.03365935464866701 -13.25878494887117 -11.205370348777857 4.956350504313122 -1 7 -17
2233 2 0.06158643225981859 -11.809042326917798 -11.305511974809244 3.1811275589837766 -1 7 -17
2236 1 -0.03330664944754565 -12.067844310014387 -10.685885464816554 4.063254005088755 -1 7 -17
2237 1 -0.01048972381997688 -10.99068594010548 -10.938536044241435 5.2090472598048 -2 6 -16
2756 1 0.007645492117608645 -14.31241811452271 -10.8508454842717 5.594153067851327 -1 7 -17
2750 1 0.004661204790603293 -14.366852085934124 -13.262324355017945 5.310374932512853 -1 7 -17
2240 1 -0.01668081956827181 -11.049692363588091 -9.958620357575677 6.247567441797904 -2 6 -16
2631 1 -0.0260012415553871 -10.516043021302595 -15.112759839838171 5.326366743892287 -2 6 -15
2686 1 0.005324686440594308 -15.42438991952131 -11.373189801856421 6.244503492004343 -1 7 -17
2238 1 -0.01771473768137739 -10.00747657647679 -11.978082209365862 4.977159814211608 -2 6 -16
1741 3 -0.3974726535880245 -14.460714187494206 -11.36677709730935 2.3155723288146244 -2 7 -14
1740 1 0.1858824856029049 -15.059134402660066 -12.714005429924756 1.974787475920706 -2 7 -14
2234 2 0.0395783830203212 -12.267142714658192 -9.695234676100668 3.7806084533590916 -1 7 -17
1738 2 0.05663798450067235 -16.201431338611947 -14.503531298994348 2.4586868521026353 -2 7 -14
2242 1 -0.04619656518697189 -11.008794431361476 -8.723451842000395 1.1829489418859498 -2 6 -14
2168 2 0.03135738454581091 -9.990152036594639 -12.55358291714145 3.915489264406555 -2 6 -16
2173 1 -0.0647900439951094 -9.958292749055895 -9.920971459358302 7.16593825073135 -2 6 -16
2107 2 0.03942990002600892 -9.5077472475397 -15.238423148394297 5.129032090735184 -2 6 -15
2692 2 0.02905455747099733 -10.83305084519362 -14.16084985788145 4.805080217677676 -2 6 -15
2747 2 0.03751182381702797 -12.71477523266006 -13.264785592195128 4.177582006909789 -1 7 -17
2246 1 -0.02416237433431453 -10.344765163707194 -9.165794489637287 2.405858752073503 -2 6 -14
1739 1 0.169466821842414 -14.624980131299637 -11.937817506783535 0.8811233071101354 -2 7 -14
2177 2 0.03560107754844578 -9.938340014184279 -10.164101523675148 2.5805323460804566 -2 6 -14
2633 1 -0.0007630657344808514 -10.87241626703542 -15.382570835558605 6.7876421122777275 -2 6 -15
2568 2 0.009196924007615738 -12.473224175212433 -13.729127289638946 6.515000752943726 -2 6 -15
2634 1 -0.01282062693021304 -11.782530008068305 -14.391535630471052 7.176670305461211 -2 6 -15
2239 2 0.008372777563952679 -11.826691197085372 -9.177508474230798 5.981133987365752 -2 6 -16
2104 1 -0.03154601683552445 -8.977008168571478 -11.697887012335157 5.951030899303707 -2 6 -16
2174 1 0.2532181631085161 -9.007233859225016 -10.991371923048117 7.190042793289671 -2 6 -16
2241 2 0.09192901705882198 -11.588437404548475 -9.425133716760607 0.6019141173027301 -2 6 -14
2166 2 0.0154137633252199 -13.36733045493141 -16.490444420396592 5.73121391303852 -2 6 -15
2636 1 -0.01501905439860303 -10.14791630561679 -16.199077458537065 7.713677984425351 -2 6 -15
1737 1 -0.05447314650238331 -15.622068589590386 -13.913025265146704 1.7298212604179266 -2 7 -14
2687 2 0.0291122897565075 -16.226343062827496 -9.327155270878183 6.50393475297674 -1 7 -17
2688 1 -0.02841575261666892 -16.270846142611553 -10.35745490532032 7.058166848352947 -1 7 -17
1729 2 0.3389389773880753 -14.658779918041052 -8.637256189643367 0.6523936667207592 -1 4 -14
2753 1 -0.01400986601733919 -15.470391375892708 -12.832987914955982 5.9532125340008415 -1 7 -17
2171 1 -0.0325009033471865 -11.375624940730921 -16.40037168438912 4.742167921338512 -2 6 -15
1209 3 -0.625751548592886 -15.413550851911324 -9.011039001542558 0.8680937349767909 -1 4 -14
1145 3 -0.6526225900859789 -11.151768361446562 -12.49304749069859 0.10352825209970054 -2 7 -14
2111 3 -0.5495554809769788 -9.479210563710627 -16.286712600126016 2.8958096492721306 -2 6 -15
1658 1 -0.05889180841954124 -16.303995318624892 -16.510355526092255 1.396738399996312 -2 6 -15
2249 2 0.01831241877851877 -8.555907788519136 -8.822730683837008 4.621166291499475 -2 6 -14
1735 1 0.02147569099496315 -15.501721638569487 -14.412723451388995 0.28516769873584297 -2 7 -14
1665 2 0.07188608276467637 -8.634522891467249 -14.312394622945925 3.701312299697998 -2 6 -16
1154 2 0.05115551569940899 -8.913442480535515 -9.995168429153033 0.4537152616317839 -2 6 -16
1144 2 0.3344854612847629 -11.931753380125244 -12.608667972103637 0.46214333922781536 -2 7 -14
2176 1 -0.02934010405171417 -9.929980394227705 -8.638452931201307 8.136493682648899 -2 6 -16
2097 2 0.01138358252812344 -15.007741433089217 -16.31487069200721 7.161929632281226 -1 7 -15
2752 2 0.01067855352868206 -16.08211924256141 -13.349455827138788 6.713974733464981 -1 7 -17
1206 2 0.02634379924518365 -16.523678116528846 -12.068425132403398 0.0832192926637187 -1 4 -14
2179 2 0.02128551837112229 -8.795377465567805 -8.405926750034464 8.176404150204785 -2 6 -16
1733 1 -0.01753878243455199 -16.059439511764094 -15.868354855094907 0.02555033953601025 -2 6 -15
1623 2 0.004878103344823859 -4.137888399915144 -12.546847488819399 0.8333999378755239 -1 7 -15
1224 2 0.01658066895145051 -7.196329180747908 -12.104603338780551 0.21814364519802223 -2 6 -16
1613 3 -0.6763205342715668 -3.2727900587074727 -16.163568354684642 2.3352223644709578 -1 7 -16
2115 1 0.2648841780094464 -4.371771380831781 -16.679331956125797 3.262143732263839 -1 7 -16
2119 1 0.0001385500795954633 -4.876813314220757 -14.401608179696801 3.223177379035641 -3 6 -16
2122 1 0.1943125648641289 -3.260054794952261 -14.719947507372634 5.163876554645646 -3 6 -16
2184 2 0.01888612189892047 -4.176617983951102 -11.815248722931333 3.9697847829848203 -3 6 -16
1684 1 -0.01392831149364773 -3.7308810968077775 -10.673052540735206 2.3370067215258885 -2 6 -14
1620 1 -0.0237437763307057 -3.26664397975994 -11.932835978408159 0.3448476650236013 -1 7 -15
2182 2 0.01156955484266239 -5.778685950702652 -13.814306258847088 3.1322987253234014 -3 6 -16
1687 1 0.003563851794342543 -2.6543001049622785 -10.96448656908221 1.3811690737204902 -2 6 -14
2190 1 0.1366570880738499 -3.031835970056219 -14.427103515461685 6.4862619003645205 -3 6 -16
1667 1 -0.02193340550501804 -7.947858296515567 -13.455529150225138 3.3065965018978782 -2 6 -16
1670 1 -0.05553246377561472 -7.941420354211768 -9.750820229326159 0.69151482017238 -2 6 -16
1565 1 0.02887040906695332 -0.4473457466400152 -15.8251707938848 4.388567067205984 -1 7 -15
1744 1 -0.02673750139494505 -7.43820360627451 -12.125851689698184 1.293261579701747 -2 6 -16
2117 1 -0.04872723897750458 -5.343441527705784 -15.837863987917494 3.78034223321447 -1 7 -16
2180 2 0.03223820136001729 -6.562553000786399 -9.249700439908386 4.3416655752480136 -2 6 -14
1672 2 0.02918638883075352 -7.864158770981344 -8.811620064238197 1.227537756362593 -2 6 -16
2194 2 0.03023078445917809 -2.768558845791415 -13.160242658882463 8.070024803183031 -3 6 -16
2257 1 -0.03789569659201671 -2.611537278433318 -10.578696639213987 7.56660873709912 -3 6 -16
2644 2 0.01491984421389611 -7.137074705720184 -15.175696213908632 6.985968633377729 -1 7 -16
1669 1 -0.01576607117389138 -7.992152189921665 -10.78992625305441 3.2507963955170878 -2 6 -16
2191 1 -0.0709425058146123 -3.1969393084430253 -13.13527705524162 7.031147728552255 -3 6 -16
1612 2 0.3065282618209754 -3.6907394784482066 -15.84882633333796 1.633383867403136 -1 7 -16
2192 2 0.03325542988953126 -1.1843913864554378 -10.958102356622048 5.812104150464873 -3 6 -16
2105 1 -0.02776772323027569 -7.532522593040402 -12.094530700077204 5.344804275611303 -2 6 -16
2172 2 0.03548496346337417 -7.4829540577963165 -13.003836481408912 5.9207053294742265 -2 6 -16
1666 1 0.01969750218610499 -7.642081398366196 -13.230957806539802 1.8723835808902323 -2 6 -16
2252 3 -0.6319302519910907 -4.928393615581173 -10.004773402796546 6.761447552787791 -3 6 -16
2183 2 0.03006528860075817 -4.3818810395355 -14.48252499254573 2.2073217470207123 -3 6 -16
2109 2 0.06091576397085356 -6.87920181007455 -11.287095869291335 5.74775584940453 -2 6 -16
2120 2 0.02020945688149909 -7.184145629532034 -15.197923642715123 4.702742008711095 -1 7 -16
1664 2 0.01644475985400021 -7.058790353178539 -13.857452084108612 1.2203538704091266 -2 6 -16
1688 1 -0.0507676543988099 -1.0308147530472103 -9.399978331162528 2.213431230825072 -2 6 -14