LAMMPS data file via write_data, version 2 Aug 2023, timestep = 1070000, units = real

3644 atoms
3 atom types

-16.721920056704324 16.721920056704324 xlo xhi
-16.721920056704324 16.721920056704324 ylo yhi
-16.721920056704324 16.721920056704324 zlo zhi

Masses

1 12
2 1.008
3 15.999

Atoms # charge

3234 1 0.006362744808914154 -15.086337866598118 -10.812342777565858 -16.107705580824916 -1 6 -15
52 1 -0.01623644774937577 -16.12974751564458 -13.268560161901576 -10.940936433522388 0 7 -15
3672 1 0.2201253030612455 -14.424180871283008 -14.925955567417617 -10.9201228602214 0 7 -15
55 2 0.02152730744556546 -13.924020544810976 -12.829359684170146 -10.51777214360149 0 7 -15
120 1 -0.006791551491123274 -11.129219836016087 -11.522240536768942 -12.34095223109789 -1 7 -15
3673 1 -0.07198945532670911 -14.797430317982938 -13.533095586053884 -10.778826843756992 0 7 -15
3237 1 -0.02829927560081394 -13.816679018151039 -10.150026485953983 -15.635002437909497 -1 6 -15
119 2 0.05891284269172401 -11.392503930479453 -13.507124713351041 -11.86158224709195 -1 7 -15
121 1 -0.01633163744572039 -10.806517936961377 -13.048214591250247 -12.573193077485934 -1 7 -15
118 1 -0.01427645402233993 -11.01196562001205 -10.164213008215272 -12.156752044982317 -1 7 -15
123 2 0.09713086278269958 -10.91817866715175 -13.665136502974795 -13.523477080046074 -1 7 -15
124 1 -0.03093710821704811 -9.416143076801633 -13.214995322888418 -11.861889876526241 -1 7 -15
185 1 0.2532491045489596 -9.164337794504572 -12.746882297846708 -10.483207403217662 -1 7 -15
116 1 0.03876779934791667 -11.703469130736702 -9.997543478206907 -10.978772948042742 -1 7 -15
3231 1 -0.01792873466649749 -16.240628045148952 -10.773270820410167 -15.28823770101942 -1 6 -15
112 2 0.01061490051471552 -16.57042381503816 -12.339082697777654 -11.257381261043072 0 7 -15
3301 1 -0.05591603093153317 -13.902525890410528 -9.052844843260035 -14.766369907690587 -1 6 -15
699 2 0.2917431441033239 -10.994828579327088 -12.524503635263175 -10.003907900899252 -1 7 -15
184 3 -0.6654739582674372 -10.245197683744951 -12.304619174084939 -9.555458984664298 -1 7 -15
3229 2 0.02854795022003796 -16.35714471210668 -14.496784872589526 -16.30304298477952 -1 6 -15
3736 1 -0.02369022319215673 -12.421900246640877 -9.915996393524793 -9.70777461329873 -1 4 -14
3668 1 -0.01536283210622271 -16.613324906382612 -15.705969785342822 -11.067342627729682 0 7 -15
3671 1 -0.03133685167429662 -15.307061359896958 -15.959317180000792 -11.205138091681487 0 7 -15
3239 2 0.06080034689513269 -12.862318877770258 -10.418744420481435 -16.13587126984352 -1 6 -15
3168 1 -0.002185835820442694 -13.491018331745401 -15.662466760233903 -16.446905190051066 -1 6 -15
3166 1 -0.006598216270346693 -14.830226306137932 -15.519993476298652 -16.270644343974226 -1 6 -15
3735 2 0.04187315329092446 -13.393568567068312 -10.482282285340554 -9.891373534827952 -1 4 -14
3172 2 0.03798245559159154 -10.606692517662825 -15.393294334579517 -16.002121347279456 -1 7 -15
3629 2 0.3265019920496827 -11.590014033963918 -16.109381795768737 -12.775392545020114 -1 7 -15
3675 3 -0.6272861173779315 -12.886129622119475 -15.24160595831564 -11.006112968362624 0 7 -15
3627 3 -0.644494083528255 -10.773363328239622 -15.648969921371345 -12.906094232553452 -1 7 -15
3674 2 0.284602904709528 -12.500665964871033 -14.472634774074384 -10.647193437475826 0 7 -15
3670 2 0.03230424280223318 -15.288768337849099 -16.126891550358806 -13.810983338500126 -1 6 -15
3798 1 0.2864012065887237 -15.041698831077385 -9.249047376784489 -13.746446941696608 -1 6 -15
3230 1 -0.06533751957556738 -16.288956664454066 -10.013554684141292 -14.029249359966125 -1 6 -15
117 2 0.02549773891690657 -10.092513709572408 -9.835744195233005 -12.643996874854734 -1 7 -15
3167 1 -0.02149793071779539 -15.37283593883301 -14.301403133852428 -16.594665986193167 -1 6 -15
127 2 0.04197225311938679 -8.512221439023408 -13.652828746878853 -13.752759310272648 -1 7 -15
125 1 0.006100667248648748 -8.432939614142837 -13.496314308498581 -12.662097621516272 -1 7 -15
3734 2 0.09832542097234773 -11.589655021439958 -10.055928031588993 -8.936417834335007 -1 4 -14
3797 3 -0.4587078842117175 -15.016817646906258 -8.415378076820932 -12.690306932614996 -1 6 -15
558 2 0.2331728817576496 -15.879907018809298 -11.52205364625401 -8.416637599614694 0 8 -15
3626 1 0.2453204253083637 -9.967680757964974 -16.63166672075156 -13.722572320715875 -1 7 -15
3163 2 0.0791780358667824 -16.67692610235392 -16.16708228783458 -15.616600206678234 -1 6 -15
3737 1 -0.03119669966873909 -12.965401925114866 -8.3777792206333 -9.295601878687043 -1 4 -14
3304 2 0.05109637434000535 -12.92628904174322 -8.630208568545434 -14.428427369846107 -1 6 -15
72 2 0.02174423006359894 -5.1138748038494475 -14.292905307501869 -12.976031834679416 -1 7 -15
198 1 0.2643687705494891 -3.365710451107345 -8.737261163528467 -9.812485477614166 0 3 -15
131 1 -0.02860150337061839 -4.554161583014057 -11.80418647290645 -12.460863832163689 -1 7 -15
71 2 0.02993349273646436 -6.386767853132391 -14.355574531457126 -14.242495935067089 -1 7 -15
69 1 -0.002411185986831776 -7.042908112228804 -13.483386171638342 -12.2448684571988 -1 7 -15
3633 1 -0.01935470081683955 -4.061094596093467 -16.102134922289416 -16.56579633648183 0 7 -15
3698 2 0.05833973935128468 -0.5422727498959827 -13.921612611861182 -12.713606112402015 -3 5 -15
3748 1 0.008852602027786351 -5.442827267287571 -11.782977867354528 -14.637527546767199 -1 7 -15
128 2 0.05134504345002924 -5.948075734687967 -10.750247213921677 -9.000396380688253 -2 7 -14
129 2 0.02549506121272831 -5.7626513851735135 -13.142863783259864 -10.57991244444737 -1 7 -15
70 1 -0.04333902854098897 -6.036991822303074 -13.882576593116335 -13.360127693244738 -1 7 -15
3822 1 -0.04140240832686282 -3.395259448066805 -8.770791207911783 -11.233389266493786 0 3 -15
136 2 0.06237017552608211 -2.5378338426062497 -10.978203133439386 -11.413994654884927 0 3 -15
3260 1 -0.01303464129350386 -0.2351600959190757 -12.122145741670991 -13.648808900931396 -1 7 -15
3258 1 0.2293291248013553 -0.5187246893220139 -10.155395055334145 -15.566700163426557 -1 7 -15
3638 2 0.00974118023196285 -3.568534858896692 -14.74117600219201 -14.306598813147016 0 7 -15
4087 2 0.03535688979615324 -6.4562940880714805 -16.34824503948001 -12.92594920641713 -1 7 -15
582 2 0.05613320799620356 -2.3992573413641756 -14.841132091813682 -8.884774432438805 -2 7 -14
197 3 -0.6387490894604656 -3.1079161108002498 -9.907296420581655 -8.936511069776504 0 3 -15
3752 2 0.01637536166086101 -2.1031805099790324 -9.651015053205413 -12.84299199542449 0 3 -15
133 2 0.03461675586263744 -4.368161813300448 -12.229721775334045 -11.456137277274502 -1 7 -15
132 1 -0.001194327729191383 -3.957494031504685 -10.620985074194788 -12.835983000295284 -1 7 -15
3202 1 -0.01696686235188692 -1.0865356746730637 -12.520266828483372 -14.724800534784528 -1 7 -15
3200 1 -0.05956770783457876 -1.3351934416214675 -11.402488572207103 -15.585797067341549 -1 7 -15
3750 1 -0.04200371140859924 -4.13149761711711 -9.987490999615124 -14.225620187370366 -1 7 -15
3751 2 0.01938209247494582 -3.6418893828632712 -9.228015418999984 -14.58927943276484 -1 7 -15
191 1 -0.01856563154840658 -6.793450491786882 -13.030638180984058 -10.909118588972824 -1 7 -15
4084 1 0.01807138752865581 -7.503443575317338 -16.454664440017407 -12.550564025464274 -1 7 -15
3749 1 0.01637260311590338 -4.973790609938413 -10.694384747816834 -14.954899621460527 -1 7 -15
581 2 0.04237695968408743 -3.880763111558301 -13.718993646092665 -8.742905778329538 -2 7 -14
2 2 0.3057387660253782 -1.06895876203803 -16.21740366489663 -9.733508464355179 -1 7 -15
187 1 -0.03476536392744981 -7.8105420070663145 -12.8763010455601 -10.06031658850198 -1 7 -15
134 1 -0.01439506252191841 -2.773659282073427 -10.040617282973248 -11.967504757121722 0 3 -15
3641 2 0.07282804897230931 -2.9334463595780105 -16.04819521473798 -11.967708927632351 0 7 -15
130 1 -0.009341400115001737 -5.186072821554523 -12.587036043771421 -13.604154243460469 -1 7 -15
3637 2 0.01303069346449948 -1.631894517539421 -15.925203525716032 -15.960337232247944 -1 7 -15
1 2 0.05296471242690764 -4.6136723084826645 -16.56437952286798 -9.573499732227509 0 8 -15
3636 1 -0.01329880520515068 -3.385202728568093 -15.807413353866067 -14.167646621936083 0 7 -15
3639 1 -0.004650740090773001 -2.809854955832765 -16.42815654321671 -13.009796327511335 0 7 -15
3199 2 0.009739671250875154 -1.4560276091640145 -13.562256939206375 -14.787767260617553 -1 7 -15
701 1 -0.02589510112744717 -7.540446002886747 -12.907372645949419 -8.47820286090056 -1 7 -15
3758 2 0.07037318486984528 -0.11348692410119905 -12.885450603120145 -11.467781673051762 -3 5 -15
3203 2 0.00705160227128126 -0.005338642330639025 -14.554445605687741 -16.430535845056745 -1 7 -15
516 1 -0.02418712115311821 -5.005737328870477 -16.076182249853158 -8.66248028147504 0 8 -15
3131 2 0.02556703331445501 -0.1219264544931199 -16.352479778355463 -14.991154454071363 -1 7 -15
254 2 0.01828194458435371 -6.51095959202867 -8.402904328082078 -12.002167960121797 0 3 -15
3632 2 0.03267783613078368 -5.143123894188253 -16.448240454711733 -16.544239914070552 0 7 -15
3634 2 0.03017156526607853 -3.9588636140462476 -14.980044032336222 -16.190497152657525 0 7 -15
563 1 -0.05062246834159981 -12.930201908124872 -12.697228492174297 -7.7702162055720185 0 8 -15
565 1 0.01198262098828046 -11.974587865395991 -13.775492343913019 -7.730008854065368 0 8 -15
566 1 0.01122765729412283 -12.473040314600508 -15.087698489416141 -7.910377516773525 0 8 -15
624 3 -0.6313983260846661 -13.721306425053864 -12.348916577009723 -4.604782391312364 -1 7 -15
1061 2 0.02020525704542872 -13.281805129674334 -16.24454609103043 -3.18757574276678 -1 7 -15
626 1 0.282808275140875 -14.337023257898709 -11.017814017334251 -4.287265501923078 -1 7 -15
1123 2 0.2934029518700267 -14.481725378292015 -12.869038939303993 -4.823077297273011 -1 7 -15
57 1 -0.03457874778969455 -11.675156809455212 -16.53694245005859 -7.703259440114621 0 8 -15
1064 1 -0.006466987135642966 -12.139335565644512 -16.448763773415166 -0.4324124809834359 -1 7 -15
1127 1 0.002793964306559427 -16.5408997168333 -12.092725952643464 -1.8526029011416427 -1 7 -15
1129 1 -0.06378695569613999 -15.637329986988084 -10.801073248654749 -3.746805496007861 -1 7 -15
1128 1 -0.01454160565114648 -15.87773399972586 -13.234913257864015 -1.3308736463853665 -1 7 -15
569 1 0.008950789453265558 -10.16088403906169 -16.17278854324458 -7.447769578502942 0 8 -15
1153 2 0.04436172058713853 -10.993994212972408 -10.951505394196376 -5.718772056198306 -2 7 -14
629 1 -0.001171374323222504 -16.17814515412522 -9.499934765930549 -3.8581678696047894 -1 7 -15
1141 1 0.003099818896012303 -10.877612316706559 -14.709864811173727 -4.103933518272923 -1 7 -15
1586 2 0.009574484965069475 -16.07124827198476 -15.523749330790444 -0.3895955296790603 -1 7 -15
1152 1 -0.03676480573787951 -10.443843371170926 -10.03830055458048 -5.484241558831638 -2 7 -14
702 2 0.04034993768090094 -9.38995548066828 -12.342163201731813 -6.841632414179471 -2 7 -14
570 1 -0.01120273704433519 -9.5957068390638 -15.220738790444154 -6.434330949276073 0 8 -15
625 1 -0.04859888837812749 -13.74508765295917 -9.850293778739081 -4.704598512316949 -1 7 -15
631 1 -0.0852044937551894 -14.909881093492954 -13.940199581937039 -7.998429558931085 0 8 -15
1137 1 0.005357567391207449 -11.473279737305191 -13.771834700664574 -3.181908102521842 -1 7 -15
704 1 -0.01179881214499065 -8.810302220344667 -11.386068992616254 -6.955211701341547 -2 7 -14
1060 2 0.02226061438904213 -15.391530393373012 -13.866834005982438 -2.0293273465973107 -1 7 -15
1220 1 0.02509430577950847 -10.359255171140076 -9.512502324355399 -3.096852645470922 -2 7 -14
1156 2 0.0489772950058511 -11.014467201459416 -9.051885337248196 -5.614388552368137 -2 7 -14
644 1 0.03568978727668382 -9.291136427215788 -10.20139011725205 -6.4398865166702475 -2 7 -14
1136 2 0.06425217554070757 -11.502406285793402 -12.655795951926873 -3.3407065002147927 -1 7 -15
1071 2 0.03167887926229968 -9.380118688031478 -16.129889275825963 -1.3473155733767979 -1 7 -15
1078 2 0.01893637472374902 -9.182995574555417 -14.959074008681446 -0.17304696849739412 -1 7 -14
555 1 0.007429515591967372 -15.469420184710955 -16.094342995822647 -3.5180556971347356 -1 7 -15
1067 1 -1.303255641287027e-07 -11.435447548380264 -15.452074382042161 -1.416789370474491 -1 7 -15
1058 1 -0.04129912755839074 -14.211238055876166 -16.338567611513135 -2.5757752826652474 -1 7 -15
1214 2 0.08872138262595798 -11.144761910340597 -9.125649198628693 -0.7396919497960724 -2 7 -14
1219 2 0.03494315610735875 -11.077737314916057 -8.816339160506335 -3.2472679989339666 -2 7 -14
561 1 0.2538910572850658 -14.253336162746018 -12.739906582334944 -7.947627679426339 0 8 -15
1057 2 0.01698574663144774 -14.322964662692636 -15.59851943267644 -1.6894076861113347 -1 7 -15
1222 1 0.0132426492501084 -9.821346767531718 -10.236799081526701 -4.135746203794275 -2 7 -14
1065 1 -0.01644427670986598 -12.18616318786801 -14.413699585342053 -2.0294626550821366 -1 7 -15
1218 1 -0.05423267595136828 -9.647880981747566 -9.595803893492077 -1.8845089652893328 -2 7 -14
1135 2 0.0237713435226798 -13.114776614002182 -14.069591860501879 -1.4975877303942629 -1 7 -15
1206 2 0.04486562819244576 -12.872438369655931 -8.514214207531511 -1.2777229292091832 -1 4 -14
623 2 0.05025007076325945 -12.680550793294843 -9.88052874061063 -5.20095709979939 -1 7 -15
627 1 -0.01783418130413828 -14.025263472981568 -8.443631382579603 -4.409103251497144 -1 7 -15
1070 1 -0.02231462432393068 -10.120655564924297 -15.724276217792914 -1.9072251965602383 -1 7 -15
1073 1 0.001325531325086414 -10.080698211395577 -15.839266226239122 -3.4090987938037927 -1 7 -15
113 1 0.001391086986037737 -13.961011369181554 -15.036962125800551 -7.7151867758531205 0 8 -15
630 2 0.06955471884002158 -15.987329194435075 -13.842063968355621 -7.828348368045198 0 8 -15
114 2 0.01528386855536821 -14.20827759580326 -16.104005874075437 -7.519638991667155 0 8 -15
557 1 -0.003579933868503932 -15.17234293856299 -16.397518525065323 -4.836843997776526 -1 7 -15
559 3 -0.5579110910522908 -15.094908676943406 -11.476997582875631 -7.707546503161668 0 8 -15
1133 2 0.2567470309601341 -13.156069478529346 -11.54164526777483 -0.11529656829492836 -1 4 -14
1131 2 0.03292870000381784 -16.365806120756886 -12.962890966969008 -3.8298866258148916 -1 7 -15
556 1 -0.03452964095933457 -16.1719994971316 -16.38222800168248 -5.786620371265269 -1 7 -15
1223 1 -0.01724076675858636 -9.014075430296188 -11.3214688589809 -3.9339531502524143 -2 7 -14
186 2 0.04743800976805056 -8.422491140641233 -13.608731150915768 -8.2804589219599 -1 7 -15
1215 1 0.02398416617587675 -10.079278066184248 -8.723416832748391 -0.5807685672502574 -2 7 -14
705 2 0.01476563244189887 -8.762673261850816 -12.057243574098704 -4.708179545249788 -2 7 -14
1147 2 0.02082258054456922 -8.53262050939874 -12.824836269986031 -1.1781793337854425 -1 7 -14
562 2 0.08004397721470871 -12.505929626639059 -11.765912837517131 -7.460984805845978 0 8 -15
1200 2 0.01576484377626835 -14.785406845089529 -8.72605174687061 -1.208625058769528 -1 4 -14
567 2 0.05740654847154078 -10.91264840481938 -13.877848986769033 -7.825558857247631 0 8 -15
1130 1 -0.008305305787365089 -16.53200837845919 -11.985003329358983 -3.4064865986712003 -1 7 -15
1062 2 0.02123383677535263 -13.246632995056002 -16.131845652600695 -0.6403279537094756 -1 7 -15
1151 1 -0.07391306670198326 -7.030773608067852 -14.203577595783713 -0.07055658693643341 -1 7 -14
645 2 0.02812660525699396 -4.028076330031998 -8.59156683079276 -2.8901948639799087 -2 7 -14
199 2 0.3108875034990354 -2.540129151850195 -9.655553215391002 -8.2712135680688 0 3 -15
518 2 0.01985669867879736 -4.97484398102257 -16.682045291888475 -3.63559500055923 -1 7 -14
571 1 1.43959111884237e-05 -8.190650722224078 -15.60101781038195 -6.04795317097874 0 8 -15
579 1 -0.006672671642678304 -4.797979750446804 -14.530048966151096 -6.5219145920883825 0 8 -15
1018 2 0.01158511103911949 -4.815102176381267 -15.277408360040472 -2.2178974903827555 -1 7 -14
1031 2 0.06996712475050923 -0.5499578583636853 -16.294687553701692 -2.0371847287251024 -1 7 -15
1087 2 0.01949407573787583 -3.0599460800338014 -13.276846386895945 -0.9793585494902638 -1 7 -14
700 2 0.01949272068085136 -6.523255970723998 -13.19929902558083 -8.199090138014064 -1 7 -15
517 1 -0.001930014514711524 -4.314806063933289 -15.13953572270918 -7.692703935926467 0 8 -15
591 1 0.0194266486285275 -1.7001607557632223 -14.07313461910414 -4.409036767632602 -2 7 -14
135 2 0.0455897196250863 -0.8038828554984255 -9.295096803153642 -7.123021466665883 -2 7 -14
1082 1 -0.02277233410074601 -5.133238825615842 -12.639500734696146 -1.2198273749453215 -1 7 -14
1089 1 -0.05296201320653574 -3.127787888726537 -15.646713814493893 -0.5649496318045566 -1 7 -14
1085 1 -0.03537497865738475 -4.833497081947604 -13.661785744108602 -0.2953990847007835 -1 7 -14
73 3 -0.5837282026403 -0.3741097208071966 -12.963350023214764 -8.015271381204728 -2 7 -14
1614 2 0.3244087058656796 -2.2460109207349674 -11.67787788706057 -0.4724769089883212 -1 7 -15
643 1 -0.01591120819939608 -6.708796899637179 -10.523666075138712 -8.25489915085355 -2 7 -14
1157 1 -0.01040294705983701 -3.1673974272209713 -8.409015061478886 -0.38444347243362653 -2 7 -14
1163 1 -0.04166123763973022 -0.2051073453830882 -9.305769409731045 -0.32165546995785427 -2 7 -14
648 3 -0.6447524169936981 -2.6967403728814703 -9.440976884671096 -5.5853274701553435 -2 7 -14
1148 1 -0.02251972882036203 -6.727239580484541 -11.581794239939436 -2.7767128652184874 -2 7 -14
1221 1 -0.03355173788811913 -8.13186573303224 -10.98141398991267 -2.8971505759133387 -2 7 -14
575 1 -0.03950364450736564 -7.298117795764085 -14.33068757913436 -5.787502739824895 0 8 -15
707 1 -0.007331693101772056 -6.977803535850727 -9.187185154381556 -7.6208134778324945 -2 7 -14
521 2 0.05453489211456477 -1.841940366169047 -15.932717127206415 -6.083682483556316 -1 7 -15
1150 1 0.03916276611928235 -6.472745551010647 -12.286932037558179 -1.3539209867726796 -1 7 -14
1217 1 0.2409539949432005 -8.359699606013796 -10.024653609012853 -1.8123821087468681 -2 7 -14
1093 1 0.001988384674471764 -0.2631870421369134 -13.615356748475682 -1.5330415400787514 -1 7 -15
1159 1 -0.02309357658149513 -2.410719952376392 -8.735896704378066 -1.4560674658570771 -2 7 -14
703 1 0.03568762513200052 -7.722272298036441 -11.421597145242998 -8.010032348606732 -2 7 -14
520 2 0.04090975999226419 -1.1552441532669642 -15.659550745481425 -7.919405357137024 -1 7 -15
580 1 -0.005338252576558841 -6.214677221313892 -16.498467989214635 -6.660707246853712 0 8 -15
650 1 0.2967232487402706 -1.8056538454884226 -8.42979519878851 -5.054364797584545 -2 7 -14
1029 2 0.01980075801926182 -1.3618742770192183 -13.936653973332417 -1.8185613260525746 -1 7 -15
77 2 0.07809718804246454 -0.6495107517865736 -11.202615484777853 -5.889623862566757 -2 7 -14
588 1 0.2387299061762819 -1.2703292285613703 -13.25097373843549 -6.767455336517151 -2 7 -14
1016 2 0.01353285957607715 -6.855191302827322 -15.865432625567006 -2.297298191260594 -1 7 -14
587 1 -0.01407122534617937 -3.865896494955186 -13.4347123793849 -5.877143048804682 -2 7 -14
576 2 0.01301062230113367 -7.2977770355299185 -14.130431560139845 -4.719816152812835 0 8 -15
522 1 -0.0162647529237445 -1.3143768203884183 -16.236780797472925 -7.105282080422559 -1 7 -15
1145 3 -0.6206859592089492 -7.193782920161812 -9.792300141227546 -0.7643591039490758 -2 7 -14
586 2 0.1141185823838594 -2.8047879393405184 -9.714375115305048 -3.4422311416894713 -2 7 -14
1146 2 0.006438997452941166 -6.544570341859068 -12.385539633210234 -3.5978809668051546 -2 7 -14
1020 1 0.01597135991882866 -4.080629856625958 -15.955332880824017 -1.5765196420532674 -1 7 -14
589 1 -0.01333071271963847 -3.0731177149468163 -13.794367056826355 -4.640218049915485 -2 7 -14
585 1 -0.01994583157873225 -2.638687341547237 -13.780811054615684 -6.872711577769622 -2 7 -14
1165 3 -0.6950727607489439 -0.471510636683972 -9.595481514361834 -2.6992135765443193 -2 7 -14
577 1 -0.007929304042776829 -5.9942229534852585 -15.214109246444735 -6.049278446172552 0 8 -15
647 1 0.002974336841609268 -2.9261132676177697 -8.810354969054035 -2.889722921708545 -2 7 -14
646 2 0.2690627760303461 -3.1841687891972117 -9.099132577134267 -6.379534679679317 -2 7 -14
593 2 0.05991293134671201 -1.014294615891666 -14.559738018513029 -3.637730016770362 -2 7 -14
1084 2 0.024144481898899 -4.295250268840589 -12.16219620608459 -1.7228248252680776 -1 7 -14
642 2 0.05371149216096244 -5.908607077403502 -11.023380236458838 -2.619986470322496 -2 7 -14
573 2 0.01346901865212166 -7.652726581230385 -13.437436381795628 -6.454065657771079 0 8 -15
708 1 0.0417649129791068 -8.22013475842671 -9.216107957241594 -6.937217215449221 -2 7 -14
584 2 0.04594548415270456 -4.292883928113856 -12.342657931882478 -5.781451728237739 -2 7 -14
590 1 -0.05433792922342916 -0.8624777756445944 -13.368847633212148 -5.454435533915616 -2 7 -14
1162 1 0.239245739703194 -1.0761216542230259 -9.239892679028147 -1.3292852936140773 -2 7 -14
1090 2 0.02187472212270875 -3.764516537327943 -14.527076413481229 -4.0916949621210605 -2 7 -14
1149 1 -0.01123439539135987 -7.6021078004337435 -13.00105510646605 -0.6999441843620314 -1 7 -14
1086 1 0.02366427698102717 -3.3375568578496564 -14.03520333091268 -0.21222158698203106 -1 7 -14
1015 1 -0.01842403682041692 -7.017986558599788 -16.708372022904317 -1.678414432073509 -1 7 -14
583 1 0.009339448233802344 -3.082689487856219 -14.20604153688755 -8.268770216003063 -2 7 -14
1081 1 -0.02123692878882157 -7.720616559537041 -16.666428101032462 -0.3400230181568426 -1 7 -14
1646 1 -0.02022553771768818 -14.846419000716958 -14.77884160893576 1.6028133780251104 -1 7 -15
1649 1 -0.005780168364279619 -13.959178000242199 -13.707004775120682 1.608825202672329 -1 7 -15
1647 1 0.250386198426674 -15.189896316168685 -15.393742826033028 2.8800496337542123 -1 7 -15
1652 1 0.008721295515243449 -13.5211071404271 -13.125568531560846 2.8558381387535983 -1 7 -15
1651 1 -0.03359080877843071 -13.171062871893886 -10.608517008906196 2.400334863390051 -1 4 -14
1654 1 -0.03385671264140805 -12.483369996083987 -12.014712498716735 2.645634093287263 -1 4 -14
1650 1 -0.05978006511075428 -14.55944275367452 -14.769286454900348 3.8413522868301384 -1 7 -15
1653 1 0.003817321455685471 -13.891630936006091 -13.6553755154198 4.154334799552971 -1 7 -15
1657 2 0.009504383077714892 -11.76662836851525 -12.125041361665478 3.5487588807132906 -1 4 -14
1655 2 0.06799613010717132 -11.972997249737109 -12.19617503256845 1.7222089937747231 -1 4 -14
1656 2 0.01722965618173137 -13.507827492620471 -13.402095816184698 5.134894150381763 -1 7 -15
2084 1 0.271313751217484 -16.3228419700822 -15.7923504367821 6.74155562613058 -1 7 -14
1661 1 -0.005447355961386801 -11.071811276500243 -15.308636854587249 2.762041336214113 -2 6 -15
1205 1 0.2147913029405444 -13.175855071187142 -10.178984506199287 1.1190316856753462 -1 4 -14
1663 1 -0.004631963675289064 -11.00738970395168 -15.327528212460662 4.173095794941024 -2 6 -15
2164 1 -0.04933016221264579 -10.141836160079135 -14.440164809810149 4.837511724145816 -2 6 -15
2163 2 0.04168216895773776 -10.742263056440965 -13.347173184631497 6.710156380921757 -2 6 -15
1063 2 0.03800868217772976 -12.02422060064112 -16.230205402990375 0.6520872831072705 -1 7 -15
2751 1 -0.01653335587863299 -11.079423741898202 -11.029496418088367 6.393399134118808 -1 7 -17
1726 2 0.0168202573542452 -13.217911836796716 -9.939378945546439 4.665854610879802 -1 4 -14
1725 1 -0.008825747794817096 -13.459278694705263 -9.758505385015813 3.520926543056854 -1 4 -14
1660 1 -0.01256634154334643 -10.39445976782977 -14.327325298977003 1.9856856793817128 -2 6 -15
2165 1 -0.01881998826363869 -10.188065696140463 -14.251591836307032 6.386392646682815 -2 6 -15
1648 2 0.01684812475598453 -13.910929088452997 -13.009496853113882 0.797190564977922 -1 7 -15
2754 1 -0.0008224908201195612 -10.037029541359686 -10.14355973250186 6.864817406287818 -1 7 -17
1736 1 -0.0008746525366725051 -9.60371282988353 -9.196319956419993 0.786062428842272 -2 7 -14
1585 1 -0.005677563162015585 -16.0387961945921 -14.959332103045009 0.6618208485554845 -1 7 -15
2099 2 0.0266310404381409 -10.796273404134388 -15.178579510895393 6.6323793354242495 -2 6 -15
2686 1 0.01571170769492347 -12.127974654906556 -9.418605909321577 8.289297367384746 -1 7 -17
2750 1 0.009853685178643719 -12.47240328202775 -11.339681989123392 6.823746432027841 -1 7 -17
2162 1 0.2589276073481634 -9.626231408143964 -13.310752733759836 4.15330291064589 -2 6 -15
2161 3 -0.6798588015702205 -8.659378635777545 -12.390451298109264 4.849253488747488 -2 6 -15
2607 3 -0.627241554334582 -15.629402124316458 -14.501049719967073 7.222658414656092 -1 7 -14
2233 2 0.04657756378269071 -8.564092077759184 -10.25866007885348 5.018017583932045 -1 7 -17
1658 1 -0.0651803896763362 -9.537794799768555 -13.487479262129817 2.805540143109917 -2 6 -15
1734 1 -0.02159207192953796 -9.760018402797586 -10.473494660888994 1.4361792115118097 -2 7 -14
2546 2 0.04638026337722879 -13.52374688166981 -15.624673848276176 6.501323522155903 -1 7 -14
1599 2 0.01362304109879175 -11.638932384175256 -15.931471356358093 4.986747520588988 -2 6 -15
1659 2 0.02166404821165535 -10.488829246213554 -14.206080908979022 0.9220058406879357 -2 6 -15
2167 1 0.03278373014547432 -8.710808373648742 -14.193269142177662 6.967079020222056 -2 6 -15
2747 2 0.02729342793293412 -12.750236463546411 -12.093037234987618 6.326189141747294 -1 7 -17
1735 1 0.004708463902026411 -8.591258599015664 -10.999826847779193 2.055209257258372 -2 7 -14
2160 2 0.2849206555019863 -9.097608059408405 -11.815336873711555 5.4471344251288825 -2 6 -15
1722 1 -0.01600796265951464 -14.620135982549751 -8.362251666823934 1.9360525320470086 -1 4 -14
1733 1 0.003131185091383926 -8.4590114114233 -12.569011232688222 2.3619684006744315 -2 6 -15
2606 2 0.3103673714817288 -15.549362581796137 -13.983894454295402 6.517421014449013 -1 7 -14
2236 1 -0.06072194509503487 -8.779678052456177 -9.697719635871254 5.8995542884251675 -1 7 -17
1662 2 0.02727041168029318 -11.69369398149421 -16.089290599159717 2.245554515404951 -2 6 -15
2169 1 -0.007309358738540588 -8.405661612959062 -13.08803690583034 7.735038462055948 -2 6 -15
1202 1 -0.01988179771280712 -13.860321390299566 -8.930006535965855 0.814153869477261 -1 4 -14
2756 1 -0.0147855742174623 -10.766377011024026 -9.292740480343733 7.891466834709732 -1 7 -17
2753 1 0.002054147870629203 -12.947369294575047 -10.532887545691167 7.846189357160707 -1 7 -17
1724 1 0.002045661706693855 -14.285909125134426 -8.678697547107014 3.252747098604251 -1 4 -14
1732 2 0.07850234973036783 -10.388939622011804 -11.170861554488528 1.10147462840066 -2 7 -14
2234 2 0.02139857363243149 -9.044443495305797 -8.679740941456542 5.714135178068462 -1 7 -17
1604 2 0.05683980441041227 -8.40898213432686 -15.385474166337449 1.3555816609057048 -1 7 -14
2166 2 0.04472930691817818 -9.155014339680722 -12.227534464103709 8.18647456920004 -2 6 -15
1134 3 -0.624883616820271 -12.363717709548528 -11.017330224513772 0.09222493998493923 -1 4 -14
1642 1 0.2203248861676117 -16.71608209726985 -12.583456695272435 0.9601023685436407 -1 7 -15
2217 2 0.06936841134362536 -16.641260098212427 -8.41515729261678 8.313580890027014 -1 6 -15
1721 2 0.02618870932754024 -14.84455076172522 -8.508360052820038 5.133723519079355 -1 4 -14
2547 1 -0.01577475434879365 -13.874766094051697 -16.67711953745635 6.613316110182379 -1 7 -14
1644 1 -0.06249870066531069 -16.249952602027722 -13.543153848618996 0.011217490161248324 -1 7 -15
1687 1 -0.008812692836004003 -0.21109919736199073 -9.84820726437151 3.5642696506814495 -2 6 -14
2240 1 -0.01015309584293208 -7.556957775203003 -8.45956530150145 7.71925084831687 -2 6 -16
2230 2 0.0139051524223921 -8.053522599302463 -13.044962248021926 1.4583888011712502 -2 6 -15
1610 2 0.3055758150589242 -1.4335398994251192 -15.20890552635101 1.2366051607279287 -1 7 -14
1605 2 0.04713245738776142 -8.120663580523797 -15.537666783370534 5.3527058085645915 -2 6 -15
1619 1 0.256391654516745 -0.7173032054963819 -12.329048092817937 0.8474032245666251 -1 7 -15
1740 1 -0.08255855489234018 -8.241249728433617 -8.508230971624815 2.7048461978924188 -2 7 -14
2104 1 -0.05456455364722385 -5.175513910680702 -9.806077825367055 6.907915509851225 -2 6 -16
1737 1 -0.007947642812426464 -8.053600883622615 -9.96364179094145 2.861681593242051 -2 7 -14
1674 2 0.009973018158633161 -0.2645702020197522 -8.378001912931675 1.608969946086013 -2 7 -14
2168 2 0.03451868510708944 -6.603623770058185 -10.416807671045172 5.354175871641519 -2 6 -16
1539 2 0.2852042722472936 -5.981265380441054 -15.516003763294435 2.1619015573100344 -1 7 -14
2109 2 0.05661114423342807 -3.0212329109748866 -9.556131601761074 6.929564698319894 -2 6 -16
1738 2 0.03163115171367394 -7.476806123692856 -10.197507305276131 3.7752155490636192 -2 7 -14
2049 2 0.4085157344269658 -4.237762412337361 -15.147362555753263 7.8660869976245475 -1 8 -16
2238 1 -0.02687503782758241 -6.429170089314171 -9.981094865212807 6.2546560561941575 -2 6 -16
1620 1 0.001519800162370502 -1.2241547883525008 -10.74012066992266 2.8555615058738586 -1 7 -15
1538 2 0.02981837093958034 -6.466247423823357 -15.85094515090082 4.573182617915022 -1 8 -16
1160 1 -0.006965798303729204 -0.8683488876410055 -8.741862818925348 0.7177893756318665 -2 7 -14
1668 1 -0.01419459035754535 -3.494508640656132 -9.231868695097583 2.5277678722110006 -2 6 -16
1079 1 -0.003414719680373188 -8.20361976797964 -15.227231129546874 0.19502669963645833 -1 7 -14
2174 1 0.2945891309001759 -5.1152158485678285 -8.903387280221013 8.08137357459499 -2 6 -16
1540 3 -0.6247210831133353 -5.278150926489891 -15.366542786420549 1.5263788215605396 -1 7 -14
1669 1 -0.01414685316043838 -3.649840018927602 -9.505508631022439 3.8116340311969417 -2 6 -16
2105 1 -0.02564567890074098 -3.829401531594284 -10.340910822313264 6.494059704600048 -2 6 -16
1615 2 0.01735008793063276 -1.4235223997917275 -9.568163099265039 5.350940143540813 -2 6 -14
1621 1 -0.0249169452780888 -0.3442990348432234 -11.94853147335344 2.1328958330307186 -1 7 -15