LAMMPS data file via write_data, version 2 Aug 2023, timestep = 2200000, units = real

2861 atoms
3 atom types

-16.71546325737322 16.71546325737322 xlo xhi
-16.71546325737322 16.71546325737322 ylo yhi
-16.71546325737322 16.71546325737322 zlo zhi

Masses

1 12
2 1.008
3 15.999

Atoms # charge

254 1 0.008055631201141406 -8.876325415791706 -9.687676807012469 -10.027335880221216 4 5 -6
252 1 0.03933713108218595 -9.382905125956729 -10.838421969260821 -9.772132951349032 4 6 -5
3852 2 0.0695506868156275 -11.099790495566786 -12.686000462839386 -13.202351214975156 5 6 -6
3854 1 -0.01351818340859459 -10.297064562973395 -12.935295655233197 -13.90314817398716 5 6 -6
3317 3 -0.4573726110311349 -13.3321331971974 -12.24966415236605 -13.961653141062579 5 6 -6
3309 1 0.1356243259952678 -15.063679970926314 -12.850687210757465 -13.895570424980892 5 6 -6
3851 1 -0.04095088207863155 -10.980604756269887 -13.148562231665837 -14.99849198931259 5 6 -6
3319 1 0.2574562522174316 -12.59777803152904 -12.84342197149445 -15.02070108128121 5 6 -6
3304 2 0.06050595412485982 -13.296630013494775 -13.805602401381357 -11.830801344807082 5 6 -6
3306 1 -0.01704669133022725 -14.399671801909237 -14.074233801880917 -11.644906477285907 5 6 -6
3898 3 -0.5018287250599207 -12.308977408217455 -10.851995385740057 -9.922256996079485 4 6 -5
3311 1 -0.02149128251293758 -15.354640724147762 -13.526678977279738 -15.199284042129568 5 6 -6
3308 1 -0.00770416583275681 -15.542317019824903 -13.587517587215416 -12.598779945244946 5 6 -6
127 1 -0.002563686639987101 -13.595515371906494 -16.18633575709846 -11.133954552453913 5 6 -6
3788 1 0.009978823953674474 -8.826181576279225 -13.225907419780896 -13.539819649988793 5 6 -6
3303 2 0.02600446654557198 -14.717568142457383 -13.611934673663422 -10.80266852620177 5 6 -6
3839 1 0.002609012360277222 -14.934531968758247 -15.537883610626434 -11.490457997628225 4 6 -5
3310 2 0.02413101499377325 -15.658399652889052 -11.90801107857811 -13.86694328862909 5 6 -6
3312 1 -0.01033025678937246 -14.637418606903534 -13.190710394860705 -16.449343369444005 5 6 -6
3316 1 -0.05177943158767564 -13.073137038057293 -13.588668276791104 -16.083389777835457 5 6 -6
3853 1 -0.00703529437186835 -10.556534826781519 -13.522030486338199 -16.462818975680072 5 6 -6
2776 1 -0.03297618047935162 -16.277669549370724 -14.66164594451484 -15.281833108721944 5 6 -6
3307 1 -0.008574521805936756 -16.47408976303843 -14.652686573479818 -13.007649721863514 5 6 -6
3840 1 -0.01057551657299056 -16.304642416504432 -15.816032004108397 -11.809684741222823 4 6 -5
3849 2 0.06141493788402431 -14.06994902423265 -12.322735583964612 -9.516287899606782 4 6 -5
3847 1 -0.04952618610044964 -12.328127534139941 -13.034002765272552 -9.110797107709494 4 6 -5
3850 2 0.02161213824233207 -9.089185817564745 -15.158498713388628 -12.475991346836361 5 6 -6
68 1 -0.003475707914687258 -13.17380805468866 -16.6769801479672 -9.86879729896958 5 6 -6
3787 2 0.01620613526794711 -8.85324567961749 -11.725287563400626 -15.188390105811756 5 6 -6
3791 1 -0.0236325069649801 -8.39574636640725 -14.40244857698446 -12.764967658862352 5 6 -6
256 1 0.3687697743582229 -11.641246498111258 -11.804241886773786 -9.655566922451762 4 6 -5
255 1 -0.06003166522878323 -9.971159207001469 -11.967299552106052 -9.553121544824883 4 6 -5
3841 1 -0.02060913691690363 -13.672265969471795 -16.07641843746159 -8.548554766401045 4 6 -5
681 2 0.06247728010524488 -14.690446164549824 -9.588150746743658 -9.236923379163798 4 5 -6
3848 1 0.003319639393306862 -13.489282100912474 -13.192441017350538 -9.275202570695445 4 6 -5
3844 1 -0.001813916561794113 -14.016799682921663 -14.596457434688931 -8.740673115989535 4 6 -5
3240 1 0.001114076078492857 -12.52572403227911 -16.475876990213116 -12.221420738986621 3 6 -5
2775 1 0.0008500000494140458 -16.675503123777144 -15.427175731489935 -14.168357872748341 5 6 -6
183 1 -0.01744438770886953 -11.37616004805326 -14.208868129756187 -8.688850814019538 4 6 -5
258 1 -0.007768275340563173 -9.184784743566569 -12.84614718538113 -8.792927553699144 4 6 -5
3315 2 0.03839044635763515 -14.795328703566916 -12.120701081315904 -16.64518822034826 5 6 -6
3975 1 0.02767298058634142 -12.041456296834523 -8.502810815026923 -15.602258216894224 1 6 -3
3846 2 0.01591352244690229 -16.227280736287444 -14.171719059014423 -8.680695148879401 4 6 -5
676 2 0.02257223093483992 -15.852503884731362 -8.474236661652036 -8.375684943459701 4 5 -6
679 1 -0.009280982791257173 -14.754102377432478 -8.858755242962108 -8.383869456297667 4 5 -6
186 2 0.02319754849483322 -11.71256137299127 -15.116767917024234 -8.658461275580589 4 6 -5
3978 2 0.01426006230827768 -9.706333323573475 -9.903039997515776 -16.204383710597337 1 6 -3
3977 1 -0.05035799481749767 -10.99790593725677 -8.562551653226272 -16.687020933902566 1 6 -3
208 2 0.01576575053527377 -3.8326091555205855 -10.368904573608342 -8.491453302763016 2 6 -3
3797 2 0.01973058575137033 -7.731924880733104 -15.56341939630398 -10.960938646332776 5 6 -6
257 1 -0.04844097412474022 -7.477556011209015 -9.0858550242887 -9.971301636050768 4 5 -6
260 2 0.02764026871793361 -6.753878142390862 -9.757084556811664 -9.52653715497858 4 5 -6
2665 1 -0.009345587359433766 -3.5181099096838158 -15.520772680560961 -16.4956835834195 2 6 -1
259 2 0.01289938190237665 -8.05631880139661 -12.820739443557365 -8.515912535304807 4 6 -5
3188 1 -0.02874520684445752 -5.164086072125736 -15.987326255357678 -14.597655237857154 2 6 -1
3789 1 -0.01566445907443268 -8.055928799143679 -12.489666418078476 -14.475223866077577 5 6 -6
3716 1 -0.01653201417943581 -6.650778021009367 -16.363990668077104 -8.484695142097634 4 5 -6
3718 1 0.001127099796663467 -4.6152287750640175 -15.86227466647911 -10.25894024632263 4 5 -6
82 1 -0.009772308564817596 -3.7653967835654756 -13.607392825817426 -9.114251280112025 4 5 -6
3865 2 0.02516388696483689 -3.023130259301227 -8.591948069244566 -15.21695984885991 6 6 -5
3805 1 -0.001080747084751213 -2.1741023689139305 -13.796574926999975 -15.766373608593637 6 6 -5
3810 1 -0.01831065115204814 -0.5904292107535292 -12.122143124491265 -13.891171393736593 6 6 -5
129 2 0.0167112740728898 -6.177029592408513 -12.319157223491697 -15.339151303902238 5 6 -6
3190 2 0.02002156020757211 -4.7829882802980945 -15.802667464174379 -13.658097812914285 2 6 -1
3796 2 0.02166498311785603 -5.202614356813325 -13.639557959726051 -13.58056428075594 5 6 -6
3726 1 -0.0413982556694087 -1.4057754554539408 -15.788347047698956 -14.723598886897063 0 7 -2
3717 1 0.004828874161796649 -5.845333136731934 -15.087817631354143 -10.47402747833378 4 5 -6
3806 1 -0.004049380138887674 -2.528353873390203 -15.039962142314614 -15.451884883759169 6 6 -5
3809 1 0.00259527000009592 -1.1243220745045994 -11.709988965379479 -15.279015850572636 6 6 -5
3265 1 0.004893670802745331 -1.1244950936188536 -9.121636267610487 -16.360781150539616 6 6 -5
3812 1 -0.01149499919722473 -0.9932206347328925 -10.354320069463732 -15.649651195591918 6 6 -5
3801 2 0.02188164269918514 -6.677780210785289 -16.548344342195232 -12.109221675799253 5 6 -6
3868 2 0.02777284453821966 -1.1363101024190838 -11.849776000383985 -13.033455151670994 6 6 -5
3795 1 0.009122473319361835 -7.00422625175293 -14.35431752677214 -12.658959998088989 5 6 -6
79 1 -0.003246726883021502 -3.4307407458142336 -15.082804712599836 -9.677842872933384 4 5 -6
75 2 0.02419388622085716 -1.8000047550227722 -14.623278613335028 -11.420091248168351 4 5 -6
3715 1 -0.02019346203483342 -6.37339762652955 -15.111228617609461 -9.010008760351663 4 5 -6
3191 1 0.001595229333134576 -4.8308530730697505 -15.90533889095948 -16.01735628110655 2 6 -1
3798 1 -0.03662577835056774 -6.811464868573797 -15.584443056306707 -11.485133336307912 5 6 -6
3729 2 0.01920899828947592 -1.4737514372289742 -15.664138755185185 -13.715673173459773 0 7 -2
3807 1 -0.02870116396859905 -1.7306256251528382 -12.658529906339178 -16.2733621941058 6 6 -5
76 1 -0.04544740256567009 -1.4821785646169494 -15.413561880106903 -10.820532239829646 4 5 -6
3793 1 -0.01631805568501037 -6.634291705758067 -12.71351285708699 -14.52599007921181 5 6 -6
77 1 0.00270740594512436 -2.132195586122614 -15.648514799525332 -9.542395135320216 4 5 -6
3794 1 -0.01458849637934111 -6.221970337212524 -13.527942105635956 -13.537032307612575 5 6 -6
74 2 0.02426193512900698 -0.802377089172092 -16.208978990682276 -11.019001159821267 4 5 -6
3193 2 0.01317575721869551 -7.290721875073374 -14.570284215723875 -8.795025209461418 4 5 -6
3659 2 0.01088287566307956 -0.6903196450338026 -16.56397329644162 -8.921291267727378 4 5 -6
678 1 0.2290346272224248 -14.048508728396891 -8.71353898682982 -5.751277201536934 2 6 -3
189 1 0.007860047871997233 -10.629568086854439 -15.6973675144356 -6.598738279931808 5 6 -6
188 1 -0.01025810898820183 -9.761658432120136 -14.724205373798771 -7.150456904469309 5 6 -6
1229 2 0.02959028190834333 -9.920663109181477 -15.74126962334125 -0.6689461934295515 2 6 -2
1223 1 0.2048224328362674 -12.383827665298472 -16.04221556714701 -1.8997736817427688 2 6 -2
1227 1 -0.01096780644450138 -11.095566416605928 -15.973851673774693 -2.4084388180891065 2 6 -2
1295 1 0.01526831512645193 -10.859027650174678 -16.372480251349575 -3.755494715761017 2 6 -2
184 1 0.006913512634305112 -10.16086086291249 -13.7747789551767 -8.214359200906971 4 6 -5
1226 3 -0.4009939283214383 -9.67735362547099 -13.072688503304576 -3.3871383035547886 2 6 -2
1222 1 0.02998183047234631 -14.892563460918309 -8.69502603749813 -4.554055066878968 2 6 -3
1627 1 0.3418940967256935 -10.226219060738117 -10.173009903398373 -2.54076127340817 2 6 -2
1691 3 -0.3678549077877847 -11.438643213804724 -10.431203457891774 -2.898820272214375 2 6 -2
3845 1 -0.02062582182722739 -15.392840050570557 -14.82303202367711 -8.28900339244875 4 6 -5
673 2 0.01980876872714986 -16.00475749727865 -11.52153542048183 -6.950069539695383 2 6 -3
1690 1 -0.04314717019556097 -9.906439502270617 -9.29203057394934 -1.2312215678639513 2 6 -2
3903 2 0.01933356794466339 -15.845516722408897 -15.999385301435634 -6.434372283378351 4 6 -5
194 1 0.03264439771240586 -8.793198322590724 -9.143754057510765 -4.277759779967155 4 5 -6
1624 1 -0.06383974466292247 -9.00787355672016 -9.732180065605755 -3.2109448813822437 2 6 -2
115 1 -0.01706111634715519 -15.470353162339746 -16.137283647013543 -7.461874425080413 4 6 -5
3842 2 0.02383586075879812 -13.069890996745642 -16.03797106510529 -7.611413969384727 4 6 -5
1749 2 0.02511845002674787 -9.88757798425881 -16.25892614956019 -3.921884826245162 2 6 -2
1228 1 -0.01547395640012692 -9.888390405997496 -15.171710598195505 -1.5954874397620507 2 6 -2
1225 2 0.1127220749065287 -10.479435169421176 -14.26238461327996 -1.5385616210936244 2 6 -2
192 1 0.01644582475983743 -9.255498403888542 -8.565311253026277 -5.425353146634907 4 5 -6
1745 1 0.189551140874424 -14.191581834689213 -16.0959241754645 -0.5806550486959786 2 6 -2
1686 1 0.004552857917560965 -8.72365227438975 -9.751578196973211 -0.748358698822611 2 6 -2
677 1 -0.03495694950083877 -14.680056199398296 -9.465091672884737 -6.764625962686386 2 6 -3
1219 1 -0.009629201406494495 -15.820860536627977 -9.218697626435821 -4.655101235639435 2 6 -3
674 1 -0.00272060507766762 -15.815371071007977 -10.399842046123922 -6.639837309702911 2 6 -3
1231 1 -0.03070681378073375 -8.53909146169995 -14.75320010934017 -2.2808991259871947 2 6 -2
1230 1 0.27879734899161 -8.475146424863876 -13.516433059961807 -3.1463601185131767 2 6 -2
1221 3 -0.4390592421583419 -13.050083306103762 -15.084092996610805 -1.0762516058874907 2 6 -2
187 2 0.02538746601629001 -8.697139666826011 -14.527870158503827 -6.593212115140976 5 6 -6
185 1 -0.003824773669614888 -11.637037393689422 -16.520305451174092 -6.119051670940149 5 6 -6
1812 1 -0.02397513802225031 -11.913614904476692 -16.644873297350227 -4.734423840167185 2 6 -2
83 1 -0.01014626917645861 -3.0526207005491903 -12.74288354391989 -8.316649980800115 4 5 -6
1178 1 -0.01293859598681347 -0.2545412819138082 -11.94777286810461 -0.8772559570837464 2 6 -3
1683 2 0.01868113248242697 -5.69406509373428 -11.26870534633143 -3.633369995797376 2 6 -2
1232 1 -0.05438587530979058 -7.084528917570458 -12.925305249153528 -3.3124915877252383 2 6 -2
1162 1 -0.006101119829746093 -6.130572310750239 -14.95783961818868 -2.2240154653325783 2 6 -2
1161 1 -0.01532118041899691 -5.892880290545003 -13.60519357409183 -3.138677844128408 2 6 -2
692 2 0.02011909703571651 -3.0543826341937104 -14.493012185311494 -7.427482806178939 2 6 -3
1160 2 0.023176179766175 -7.78507119832424 -16.329652688489077 -1.0419474146686212 2 6 -2
1241 1 0.009252098454808736 -1.184295002955442 -14.819666635372725 -3.523339949430204 2 6 -3
1684 1 -0.02035687640053397 -8.001013244064293 -10.814550340134396 -1.3630370732066237 2 6 -2
690 1 0.02869334031652845 -1.543906049392805 -14.395918975948488 -6.078782105801679 2 6 -3
3727 1 -0.02133406945466483 -2.0462867299195326 -15.162777816030252 -7.237988178830781 4 5 -6
1110 2 0.03044484273712221 -2.953979536907944 -13.287997199455233 -1.4920849141595067 3 5 -6
1747 2 0.01661058864325948 -7.260439036792978 -11.49161601756751 -0.749692475113564 2 6 -2
1159 1 -0.02320968622181378 -7.5160429200444785 -15.449032111340722 -1.7182274848144214 2 6 -2
459 2 0.01130114424677056 -7.383765514687177 -16.363347407363623 -7.762620475763797 2 6 -5
696 1 -0.05802783324226768 -1.878430372294827 -10.764490714858216 -7.267761541185143 2 6 -3
1169 1 0.005532525454221971 -1.2563042327397274 -14.633502077630595 -2.205500345406619 2 6 -3
1163 1 -0.02704067175536273 -4.905205969858298 -15.705826123041765 -2.5700745206688933 2 6 -3
195 1 -0.01595798416190237 -5.307600478658914 -8.83112803015451 -7.6975237531969265 4 5 -6
3723 1 -0.007378771135467928 -1.0837219410510595 -15.57391507043483 -8.292489305111376 4 5 -6
694 1 0.02202240710989627 -2.0074091422511953 -12.216787687980398 -7.413463517240416 2 6 -3
699 1 0.2398045660104307 -1.2250933695566109 -10.197585586163404 -6.073774005881631 2 6 -3
698 1 -0.1007424507280295 -0.15808880003964582 -11.020790710200702 -5.542573229002922 2 6 -3
763 1 -0.0769827104201696 -2.910769922205015 -8.780155653024801 -7.467211879081899 1 6 -3
1158 1 -0.03401435795104033 -6.806198578576772 -11.426261526619786 -3.681325626345386 2 6 -2
633 1 0.01241668547207045 -2.0921037247032697 -14.539256441115606 -4.632918283145628 2 6 -3
1622 1 0.02122229488449551 -7.805278900410476 -10.583254961919748 -2.7806212903387904 2 6 -2
1086 2 0.040403998672613 -7.372907425512745 -11.3663230377406 -4.494138657053692 2 6 -2
693 1 -0.05750746229737871 -1.2109924504819947 -12.884333048566933 -6.42375060367094 2 6 -3
1165 1 0.003287678356902475 -3.6571834318330088 -15.079083728013694 -2.706832768226823 2 6 -3
631 2 0.02107125819556489 -4.078571188662739 -15.19113655388731 -4.911849661499285 2 6 -3
695 1 0.2721685034460684 -0.220125203632164 -12.337411581312509 -5.531219858694405 2 6 -3
1087 2 0.02056610113816026 -5.177782001455413 -12.785789348532713 -2.9358741345461024 2 6 -2
632 1 -0.03031238368304715 -3.3538422532429486 -15.07203736143593 -4.21946224759597 2 6 -3
1168 1 -0.01999967305026293 -2.651147493934219 -14.45851074879224 -1.6596604363575487 2 6 -3
1244 2 0.02700276452755895 -1.905396762445639 -10.602891231917864 -5.286012218408313 2 6 -3
697 1 0.02684892140037255 -2.895458675674584 -10.07583157831798 -7.999514904255154 2 6 -3
700 3 -0.5262005012683725 -1.2233229811639745 -8.754750564502649 -5.594214431621081 2 6 -3
1111 1 -0.004661423225733836 -2.52870818608448 -15.251099422638763 -0.3080729864507424 3 5 -6
1647 2 0.02406878117632213 -3.6917228219186593 -15.331635377008594 -0.28040939011383537 3 5 -6
1242 2 0.08594350022477448 -0.15920662639366778 -14.951550192247796 -4.247896085504896 2 6 -3
1171 1 0.002278856976969879 -0.021145200757303816 -14.306952134717818 -1.3593713686127897 2 6 -3
2319 1 -0.003451012512766041 -13.869940936527676 -11.888559114406444 5.031251326373314 2 6 -2
2317 1 -0.004039299294575832 -13.292818197163212 -10.675417042411913 4.7476987070232015 2 6 -2
2316 1 -0.002357006979001534 -14.19817261932889 -13.19534578603451 5.4338157377510425 2 6 -2
2250 1 0.0001207136353808813 -14.545265076495172 -14.458195960365632 4.596355955595731 2 6 -2
2258 1 0.02105252690376061 -14.184171931432317 -14.650598186146397 3.164681516430995 2 6 -2
2256 1 0.004247690341536523 -15.556071173119106 -15.35677873565816 2.793639434134828 2 6 -2
1744 1 -0.00696175989238397 -16.14552995503173 -15.35427739667399 1.263495995541491 2 6 -2
2264 2 0.0608455974344248 -11.151109850912563 -15.975656317384033 6.477173769592154 2 6 -3
2266 1 -0.01850481347323942 -10.101429703276434 -16.317734625436806 6.168197598972859 2 6 -3
2267 2 0.03498891734711714 -10.054493374901691 -15.993592713803277 5.1517110819180605 2 6 -3
2265 1 -0.0004745238736146677 -9.370249180641872 -15.930225756180564 7.414758551488596 2 6 -3
2320 1 -0.020349381646788 -13.13107790544819 -9.886663157948664 3.7361966634946002 4 5 -6
1748 2 0.03245975813983623 -10.125453730404027 -9.577257724476635 1.0225844661613146 2 6 -2
1746 1 -0.01473792869515134 -15.212864956539319 -15.714663148609707 0.32630617748697793 2 6 -2
2251 1 0.002537352768931475 -16.606094614135944 -15.005263116323365 6.2506786651426145 2 6 -2
2200 2 0.01963491190821692 -8.677402956686656 -10.742759824049498 1.2921779791384527 2 6 -2
1685 1 -0.03336290595714625 -9.009158431859515 -9.806733708181453 0.8587061274624028 2 6 -2
2243 2 0.02782282283323077 -12.31115629346614 -14.402351366676754 7.708956742316693 2 6 -2
2314 1 -0.0003887235146092397 -14.128270052608114 -13.098354122009567 6.902627117726541 2 6 -2
1799 1 -0.01248527750057865 -14.84948430087304 -12.063354821648467 7.357043679161482 2 6 -2
2246 1 -0.01743705000194348 -13.265355879064598 -14.008179232589988 7.8474598254051635 2 6 -2
2321 2 0.02794981369974444 -13.23274144902393 -9.886161500072578 2.604128156528861 4 5 -6
2247 1 -0.02232396234961112 -15.774068558475946 -15.409095800054693 7.338263676169642 2 6 -2
2245 2 0.04402521552585684 -14.672819850468578 -15.66227804241982 7.083893812017809 2 6 -2
2253 1 0.001929015092739928 -15.852021792189666 -15.153824137543879 4.975736012435446 2 6 -2
2779 1 -0.02567939374909217 -8.396064598191048 -15.060953733428097 7.8852372138341735 2 6 -3
1862 2 0.02126801959136693 -16.555353397976226 -8.383872237462857 1.2521623311190262 4 5 -5
2323 1 0.0006745138979330993 -12.691136258906202 -8.561913397276395 4.263923160432123 4 5 -6
1742 1 -0.0222534312810948 -16.60962178758243 -15.490005134956641 3.892257551688761 2 6 -2
2204 1 -0.01245194213815391 -7.152012485161939 -8.549181132173036 2.499063465602095 3 5 -6
1705 1 -0.03851654858348936 -2.473215109420952 -14.029398510925303 5.545810616850269 1 6 -4
1687 1 -0.007379467901369851 -8.106011138849516 -8.586479444601794 1.3742435391823886 3 5 -6
1693 2 0.01287121603920328 -5.542465744654554 -10.407232152516762 5.245626810239469 1 6 -4
2724 2 0.01583190596764041 -8.213110711726195 -14.402611756042365 7.043820292128894 2 6 -3
1702 3 -0.4961419981873659 -2.3699028984962514 -12.101608293208084 2.879157551651123 1 6 -4
1696 1 0.01508292848705275 -3.6566052606294686 -9.619465066046429 4.164959827450172 1 6 -4
2219 2 0.0458530258446372 -0.10516997904062747 -13.574919849361768 7.717735872006265 1 6 -3
2212 1 0.003558866985320156 -3.1291520441498792 -9.001488248472636 5.495232326066734 1 6 -4
1708 1 0.004000108595173264 -0.8523908216895789 -13.709647031947387 5.6131719587981195 1 6 -3
2838 2 0.01073877610539809 -5.859902329948866 -9.088787868400113 6.888225773785239 2 6 -2
1635 1 -0.01599308313610815 -4.325837842092493 -14.886473388505989 3.7386428375127503 1 6 -4
2150 2 0.0436071277253973 -6.348420052674352 -15.366690972324843 4.469401830900591 1 6 -4
1763 1 0.01223430109347109 -3.0258784561799588 -9.21788780592093 3.0837802173691786 1 6 -4
2202 2 0.0145448961967427 -6.406023092458902 -9.323178422962776 2.80138859329561 3 5 -6
2799 1 -0.01813611857782027 -4.856431044000764 -9.74504473481994 7.35757703218646 1 6 -4
1701 1 0.3372882517451941 -3.3000095222648422 -12.676295302724618 3.461790160176685 1 6 -4
1700 2 0.04133908403230564 -3.2715001367530308 -9.560570875479145 2.0002549671166134 1 6 -4
1711 2 0.05960356908160659 -0.6970680424055067 -13.950983517430785 3.340761994625302 1 6 -3
1112 1 -0.003721454189917012 -1.7564315459234705 -16.084976593630685 0.32110771443444786 3 5 -6
1636 2 0.05906672985332747 -4.495162743575288 -16.03578474619772 3.570580489136271 1 6 -4
1706 2 0.01927765662787293 -2.8563355535726473 -14.790035684664065 6.161901029733944 1 6 -4
1698 1 -0.006697515984544666 -5.575854521138892 -13.103319846398657 4.5900071223198475 1 6 -4
1695 2 0.01519153652463764 -5.119300702164292 -9.862949527599051 3.3698112565933642 1 6 -4
2214 1 -0.001370216785949473 -3.4664458085848397 -9.376284189131313 6.825261474229921 1 6 -4
2210 2 0.01060916119244252 -6.39751440642123 -12.704809861054123 5.178664726674814 1 6 -4
1703 1 -0.02602015029421514 -3.0109549232708535 -14.173889571312566 4.093057524628204 1 6 -4
1699 1 -0.0566964679102068 -4.619570846632975 -12.226140856180711 4.233484182136647 1 6 -4
2151 1 -0.01881076400463441 -5.581378651060875 -14.526702425394568 4.296225834022728 1 6 -4
1694 1 -0.01220210030587633 -4.936774052977951 -10.619965470096728 4.323026730466217 1 6 -4
2283 1 0.007563474651115669 -2.684144912528012 -8.440464018619187 7.721878803756193 1 6 -4
1710 1 0.007043962846013984 -0.15158788223700922 -13.795998811485207 4.512901885385963 1 6 -3
1640 2 0.0300696707106561 -2.5865009720518577 -13.044412794472457 5.624168813389891 1 6 -4
1769 2 0.0289105788597945 -1.6319877235078866 -8.377339316287108 1.245990948404223 2 6 -3
2781 2 0.01024666975391113 -5.736302102030313 -15.018252475924417 8.346182525118083 2 6 -2
1177 2 0.04822059048087714 -0.6767122683762001 -11.981967846658524 0.0308229615913357 2 6 -3
2769 3 -0.2838688267090604 -11.594150254281004 -11.955901467739627 11.932505418678739 2 6 -3
2774 1 0.2062050847891501 -12.458293626908214 -13.053179722262904 11.167511757934298 2 6 -3
2772 1 0.008343005473663859 -13.754062262089384 -13.051622713672932 10.83177334872336 2 6 -3
2829 1 -0.02857114192967254 -12.062323540736644 -14.326905358716683 10.702445479550983 2 6 -3
2827 1 0.003854269199404559 -13.174231899988602 -14.99369411202643 9.85665170583765 2 6 -3
2706 1 0.007195079131699969 -15.395412267119555 -16.298204161811682 9.779951758974786 2 6 -3
2649 1 0.009571344741014972 -13.970526021857042 -16.351964064244694 9.922334935542784 2 6 -3
2833 1 -0.06228251494774042 -9.812466658620426 -15.468644514713365 9.93267636160718 2 6 -3
3313 2 0.0260093480455622 -15.117064657864258 -13.962038016257443 16.368434508341966 5 6 -7
3426 3 -0.5476348575318977 -14.422522625730902 -10.078972423410448 12.931089657375452 4 4 -6
3429 2 0.2685196127614003 -15.099229411850523 -10.676226091223386 13.287954524103695 4 4 -6
2770 1 0.04495040275897812 -14.453401260938278 -13.097927758318928 9.593713013264896 2 6 -3
2826 1 -0.008307850560899294 -13.880510170876908 -14.107922779504769 8.818153553264933 2 6 -3
2322 2 0.03389054714342813 -14.65459691105258 -10.946744220243446 9.06876418502387 2 6 -2
3432 2 0.07054994129850657 -13.513147459371396 -8.771847696325613 10.928320722417824 4 4 -6
3425 1 0.2579113552711952 -15.49954597977251 -9.223063146801826 12.360052013243983 4 4 -6
3904 1 -0.0970090248432347 -9.437937121158335 -9.275448016409753 15.024081525949036 1 6 -4
2831 1 -0.002253590800754129 -10.872683920720366 -15.387445037044175 10.821325002648804 2 6 -3
3379 2 0.04648029618948311 -11.73446333332271 -13.502250606325596 15.616625990802058 5 6 -7
2326 2 0.07579576543579766 -10.33093031286065 -15.304456769978257 11.774813557500918 2 6 -3
3906 1 0.2748740766661592 -8.441940556857652 -10.20437783860603 14.677864756656266 1 6 -4
3908 1 -0.03229299313485966 -8.605965938678093 -11.534330065195999 15.136446956776389 1 6 -4
3955 2 0.02104918199420794 -16.504573224653043 -10.279877947116521 14.496545217731558 4 4 -6
1800 1 0.002481960350387623 -14.952507536363706 -11.9509917292474 8.795620112590328 2 6 -2
3980 2 0.04891744394164285 -10.808120541543097 -10.659368579402926 15.872724016952391 1 6 -4
2835 1 0.273874300558437 -8.647572924261134 -14.914282260743283 10.136157225969786 2 6 -3
2248 1 0.0278872762920345 -16.170731645882675 -15.401570090944322 8.683464695522707 2 6 -2
3979 1 -0.0008240682796575392 -10.156467787196636 -9.675073029294948 16.164141626007886 1 6 -4
2262 1 -0.01335175788304194 -9.83191435609015 -16.33570466702509 8.644451281394568 2 6 -3
3318 1 -0.0223585401700923 -11.95671398696146 -13.881201979607702 16.621181179747595 5 6 -7
3320 1 0.02143732639888603 -8.486843032627599 -12.939162207368403 15.108851679964603 1 6 -4
2832 2 0.02255781683757065 -11.349245620128936 -16.22470760380312 10.435952800661717 2 6 -3
3422 1 -0.08028203612890207 -16.69136530722813 -9.06847432722199 12.795125825610555 4 4 -6
3381 1 -0.007914726710842267 -9.642627987848828 -13.133563713812523 16.0270618716761 5 6 -7
3500 2 0.05055977197372707 -11.354556620985946 -8.594558935068045 9.558746561186608 4 4 -6
3803 2 0.02050941989420583 -1.777332685100978 -12.48034387277509 16.16668431380524 6 6 -6
3264 1 -0.0190816487092975 -0.782190627027384 -8.369895497772626 14.841607487669222 6 6 -6
2736 2 0.01510550370384044 -1.1379132767906783 -11.471693691400151 15.069557509738972 2 6 -2
2732 1 -0.036631384568982 -1.7350140270739474 -13.453736065914 14.034109590166272 2 6 -2
2730 1 0.2336941870492046 -1.3855682751685892 -14.240941354784638 12.856446825275185 2 6 -2
2725 1 0.217510498734042 -6.497306489087598 -14.759067149433983 11.797960037640857 2 6 -2
2796 2 0.02391582312856041 -0.2616640406370095 -11.38578240128422 11.288744389322174 2 6 -2
2735 1 -0.008966940072896858 -0.18602215679763706 -11.579777855165732 13.414930952959676 2 6 -2
2740 2 0.02040817210549856 -3.029873136055787 -9.851386392533609 14.067243384345655 6 6 -6
2786 1 0.01475704166632973 -3.217870655923133 -13.82520395676293 10.561092647726356 2 6 -2
198 3 -0.4972505054741532 -7.533766560303174 -9.722646073536923 13.592064165233504 1 6 -4
3321 2 0.0297716561830186 -8.044039269350058 -13.87847194703081 14.741824172996136 1 6 -4
2734 1 -0.01717493936089536 -1.2760915401333457 -12.244050851370924 14.211969903545175 2 6 -2
2794 1 -0.03285605252798045 -3.054141886839086 -8.630957943856442 9.112103390156715 1 6 -4
2866 2 0.02979327513386296 -5.68530556296656 -10.75221913100662 9.245332791790304 4 5 -7
2789 1 -0.01621835115150831 -1.8487745359604808 -13.659800309772745 10.281764049176086 2 6 -2
2800 2 0.0293578076419742 -3.763811805320934 -10.712997008258101 12.006894734980209 1 6 -4
2790 2 0.01827394220543831 -1.6585695144064956 -12.882915306727936 9.530393785899605 2 6 -2
2795 1 0.01095939934795601 -3.5867885141293394 -8.685508406655567 11.882532771434244 6 6 -6
3330 1 -0.01813279989844869 -3.25109865440728 -8.947480065778658 13.393338980065549 6 6 -6
2669 2 0.08488747668958357 -1.6218391500362483 -15.707327909289923 14.779761431060837 2 6 -2
202 2 0.04110688106356998 -6.599475170271867 -9.098389140263814 10.710888823162586 1 6 -4
3189 1 -0.00346781575233775 -5.842157253590039 -16.174418980093247 16.464192552816563 2 6 -2
2797 1 -0.02351686612087676 -3.7428730612628303 -9.93975475882399 11.266848804475398 1 6 -4
2798 1 0.001469672259179891 -3.743638693644448 -9.754916357789673 9.723153682731102 1 6 -4
2834 3 -0.4847232333004273 -8.110011531149617 -14.799360839510127 11.495388065673914 2 6 -3
2727 2 0.2559215105878224 -1.2729891987039934 -16.515929242300082 12.300767079310365 2 6 -2
2726 1 0.02080007310567547 -4.783981037131771 -14.80085315184958 13.422170942412142 2 6 -2
2728 3 -0.5671847490219224 -1.7948148732229616 -15.769859918838465 12.834754765641529 2 6 -2
3251 1 -0.008513205587695475 -7.023224475389738 -16.053424542020206 14.119466284633692 2 6 -2
3253 2 0.03643847946855018 -7.992008246870865 -15.44219541906761 14.356749269781599 2 6 -2
3254 1 -0.004759578068165099 -5.90483597373126 -15.834698234969062 15.11621989246154 2 6 -2
3258 2 0.04003445655995977 -4.160100841525919 -14.048656991477545 12.705456583161995 2 6 -2
3252 1 -0.007335712254840577 -5.988603530096313 -15.307576619751838 12.936668300300779 2 6 -2
2788 2 0.03636572665087622 -1.7741635658639074 -14.691388187354782 9.787298808491174 2 6 -2
2837 1 -0.04533034980173225 -7.655226559384488 -14.9958631991964 9.135744985546332 2 6 -3
3256 1 0.03264831556527605 -4.542404544470942 -15.319648501023892 14.672144568846397 2 6 -2
2671 2 0.01428160282940474 -1.2622902630168433 -14.094275975444853 15.832863895580834 2 6 -2
2667 1 0.00564075902890545 -3.477857434979638 -15.093284598852772 15.633967370337626 2 6 -2
2733 1 -0.007542491577669896 -0.4285561483040952 -12.217845524816104 12.054745278627367 2 6 -2
2783 1 0.008432165644925535 -4.379893824593025 -14.08796280093323 10.574435258911471 2 6 -2
2801 1 -0.02690966349361057 -5.005688310358899 -10.326231022524388 8.561425671600002 1 6 -4
2782 1 -0.01138007462862271 -5.7404046986035935 -14.623783610305304 10.536019318553453 2 6 -2
2780 1 0.01663599236005842 -6.336301047244013 -14.969706001235515 9.163880433964552 2 6 -2
2731 1 -0.04567368427277486 -1.1254787557188848 -13.415655492587122 11.850097629872746 2 6 -2
2670 1 -0.004115266238652 -2.0290136380583053 -14.655534907544562 15.09443652429579 2 6 -2
441 1 -0.04109609202119936 -11.094203973032172 -2.298955379121347 -11.695923113963337 4 5 -5
438 1 0.02159595383679626 -12.519968972783179 -1.5514093241019338 -11.548337441659745 3 5 -6
4098 1 -0.005819706091402648 -10.93105092000377 -2.4103946708949247 -13.218010534016697 4 5 -5
443 2 0.01643154809957537 -10.918710472990535 -3.338724563831396 -11.558092477088213 4 5 -5
738 1 -0.01812113966992366 -10.525817092760803 -6.01405586871405 -10.379503617540815 4 5 -6
373 1 -0.002076158158171817 -10.541254281991618 -3.6651227654465672 -14.042149519199185 4 5 -5
4037 1 0.004104199283409514 -10.144777248242043 -3.7937449137400603 -15.402821702127698 4 5 -5
3971 1 0.008930325210168098 -12.804014073928718 -6.217759525845845 -15.762976180239606 1 6 -3
304 1 -0.01327667300720177 -14.030519973123356 -4.641208627368107 -14.211917328448017 3 5 -6