LAMMPS data file via write_data, version 2 Aug 2023, timestep = 2340000, units = real

2720 atoms
3 atom types

-16.71546325737322 16.71546325737322 xlo xhi
-16.71546325737322 16.71546325737322 ylo yhi
-16.71546325737322 16.71546325737322 zlo zhi

Masses

1 12
2 1.008
3 15.999

Atoms # charge

3854 1 0.00630453446036441 -9.911007686381009 -10.34662911213396 -10.803141022044988 5 6 -6
3317 3 -0.4423341198774879 -12.333575545414606 -11.929530321580787 -10.12410126141418 5 6 -6
3851 1 -0.0357300365086744 -11.056231043359993 -9.84708801137998 -11.225963705355461 5 6 -6
3319 1 0.222103846397447 -12.286178383435173 -10.58807939030532 -10.896568291761756 5 6 -6
3311 1 -0.02223286663153179 -14.90077354238699 -11.831303387821672 -11.243944972468032 5 6 -6
3316 1 -0.04054879529373707 -13.376846237309275 -9.760140895867034 -11.4455842583142 5 6 -6
3853 1 -0.005363323547923453 -11.329689754498496 -8.588506488180904 -12.191875402169973 5 6 -6
3312 1 -0.01823027975454706 -14.844524988097806 -10.321072911275055 -11.681894283826411 5 6 -6
3308 1 -0.02151975316533837 -14.575698168910732 -13.005830830857358 -9.17283547958045 5 6 -6
3309 1 0.1667058584529585 -14.05504109883053 -12.215484997730513 -10.20190216606167 5 6 -6
3318 1 -0.01226004698671899 -12.770362726269902 -8.58308145923351 -12.077527693054826 5 6 -6
3313 2 0.04854678928699342 -15.155627983694373 -10.398159065895928 -12.70352554428266 5 6 -6
3315 2 0.01251816491969715 -15.520168818910918 -9.412913109744638 -11.111812667991947 5 6 -6
2776 1 -0.004863894681596516 -16.344051554095426 -12.45579656665575 -11.435896554580044 5 6 -6
2654 1 0.005712451168104083 -9.442298372046235 -15.10431570888909 -14.112353931146457 3 6 -5
3240 1 0.004436503732985268 -11.614660322243058 -15.598384632266145 -8.487673709828519 3 6 -5
3181 1 0.01742959540823662 -9.8785865247302 -15.103904194527118 -11.493263222921623 3 6 -5
3168 2 0.03162033091329809 -14.523931591337728 -15.7783710526987 -10.899187155469743 4 6 -5
3242 1 0.01234809559370167 -10.92305362052838 -15.865825754614745 -9.427147548001354 3 6 -5
3307 1 -0.0125291307272621 -16.155961316331204 -13.448033704789685 -9.371643372427515 5 6 -6
2656 1 0.003215453692095079 -10.243580471716475 -15.730306444243851 -12.898339963866613 3 6 -5
2653 1 -0.02156710396134432 -9.693536113189682 -14.915649247149265 -15.554093646840021 3 6 -5
2655 1 -0.009456875398368231 -10.830720593647865 -15.418603853969016 -16.20374034532581 3 6 -5
3770 1 0.2848886964983203 -16.133871447420386 -16.13178956102663 -14.881931974828186 2 6 -2
3852 2 0.03995077411578045 -9.544517138802908 -11.042984721566329 -10.166262060840534 5 6 -6
3381 1 -0.02016520066598091 -10.66415938722585 -8.763801127647913 -13.733290521920013 5 6 -6
2651 2 0.02438398094473194 -9.181588645255204 -14.066613244418692 -15.749582494089195 3 6 -5
3788 1 -0.007043902465045517 -8.828523516737649 -9.301621313191799 -10.544518050052831 5 6 -6
3235 1 -0.09003921168523076 -16.698115614709867 -16.219817091917534 -16.240854985470094 2 6 -2
3321 2 0.05586569968084905 -10.507105566352973 -9.733195114380363 -14.434002275227622 1 6 -3
3768 1 0.01386382509409412 -16.51574084224465 -16.439880075610105 -12.524273878006667 3 5 -6
2719 1 -0.008601349220251908 -8.374373246673999 -14.369853151269979 -13.57260843807568 3 6 -5
2775 1 0.0002693390868613796 -16.48761902881919 -13.851028621220161 -10.789745706648418 5 6 -6
3243 1 -0.00269337985112459 -9.83482986042589 -16.085522495686828 -10.44007083062219 3 6 -5
3245 1 0.001430494581050969 -8.43288394337013 -16.161487486765118 -9.785570467950397 3 6 -5
2716 1 0.005545817659743192 -8.634415492680965 -14.379101483605996 -11.264464784317619 3 6 -5
3692 1 0.01683681547197321 -16.61191659398351 -16.521862014406686 -10.064960624372345 3 5 -6
3840 1 -0.01931368105718849 -16.701494646944376 -14.626024076485898 -8.683500436381001 4 6 -5
3787 2 0.01863384346499364 -8.789055630299393 -8.438473005679018 -12.348213328045146 5 6 -6
2657 1 0.0169479963097924 -11.620225442619095 -16.61836944167502 -15.727910025221446 3 6 -5
3622 2 0.03824252485516182 -13.352117110088313 -16.537030145898783 -11.438209863737482 4 6 -5
3169 1 -0.04738766004316909 -14.407596845316089 -16.641298728031575 -11.466335971166147 4 6 -5
2707 3 -0.4634514337008458 -16.648281021544044 -11.399418242444364 -16.597610609996156 2 6 -2
3152 2 0.02868158639749261 -0.1705168067169402 -15.11762213097137 -15.925246337605753 3 6 -6
2732 1 0.009806387823042889 -2.622875822833505 -10.673908803687187 -16.242615065546197 2 6 -1
3805 1 -0.003561477040972032 -2.3775425330891315 -10.062835332072938 -11.254887129763365 6 6 -5
3796 2 0.01826153682958899 -5.070011883463416 -8.797192293936734 -10.314601409891788 5 6 -6
3256 1 -0.0009095847789676072 -4.24765258299362 -11.065281979824546 -14.490161904038212 2 6 -1
3722 2 0.02830359943624308 -0.2491832022304995 -13.20280313303174 -13.223359690370822 0 7 -2
3190 2 0.02219084119416981 -3.3286168491717234 -15.043848294402995 -9.750480892400137 2 6 -1
3187 2 0.01755394058452231 -1.5842608606759416 -13.240029658335983 -10.480456770681224 2 6 -1
3254 1 0.000164404764696785 -5.543336301211994 -11.726503876307053 -14.02129016420286 2 6 -1
3258 2 0.04591909921996641 -4.750005768499297 -9.58326347586424 -16.04346902974404 2 6 -1
2669 2 0.02618437354104474 -1.146876791875075 -10.194921661330952 -14.560295481538025 2 6 -1
3726 1 -0.02360858399177405 -1.1353590821898047 -12.251592662632305 -10.699659675066359 0 7 -2
2670 1 -0.03970277423056298 -2.1272124580582674 -10.293034609753981 -14.73018303105472 2 6 -1
3252 1 0.020027962353699 -5.071958780342273 -11.883075182734215 -16.506722911987577 2 6 -1
2665 1 -0.00648639113947163 -2.944225535332125 -11.895467472048127 -12.578602618155278 2 6 -1
3806 1 0.001139094720129951 -2.0513101748736817 -11.331708797787837 -11.440967993295532 6 6 -5
2671 2 0.02478678856550801 -2.537908797047961 -9.289389470834422 -14.651249075056029 2 6 -1
456 1 -0.02274520122926662 -3.498531845362106 -15.788145692320526 -8.980659542277767 2 6 -5
2726 1 -0.01791862808009815 -4.097957820018959 -10.547262024908845 -15.965926936607 2 6 -1
3191 1 -0.0007427275838577975 -4.226929511232589 -12.59497156049219 -12.197339663999653 2 6 -1
2667 1 0.002611367803393935 -2.9384427865091025 -11.440397070745785 -13.964012541347449 2 6 -1
3807 1 -0.02036832759809606 -2.5898731799957817 -8.854949063124302 -11.130784877919282 6 6 -5
3189 1 -0.007860462381904628 -5.603351239612643 -12.454562662613807 -12.949736062600426 2 6 -1
3791 1 -0.01210947512124436 -8.289813621136265 -9.16554560543931 -9.040372767347874 5 6 -6
3794 1 -0.02223557158344902 -6.169629452919293 -8.737512341741047 -10.514081198883723 5 6 -6
2661 1 0.003738106427230044 -5.723233049819888 -13.903977793751007 -11.073683825792587 3 6 -5
2720 1 -0.0005810244408198002 -7.750288680657318 -13.881922278176633 -12.369244048652044 3 6 -5
3251 1 -0.03843611269887087 -6.338546290417019 -11.981889953950883 -15.407061580191513 2 6 -1
2659 1 -0.002245931208073884 -6.3263972105936945 -13.535605799418468 -12.242172637673843 3 6 -5
3803 2 0.02121352858823392 -3.56941551402172 -8.384930435537616 -10.858032899856292 6 6 -5
3795 1 0.009765519597563105 -6.917635108576849 -9.219816819577064 -9.247728352538763 5 6 -6
2717 1 0.0008581970733065464 -7.909303739670553 -14.92489198125435 -10.207092313079821 3 6 -5
3253 2 0.09204919880375131 -6.855551462238078 -11.30067524843201 -15.957508412219553 2 6 -1
3247 1 -0.01578398087050167 -6.428930669105388 -15.138382802756002 -10.370221138643954 3 6 -5
3797 2 0.02346027110661323 -5.31463619341892 -9.939512299771401 -8.799403822135652 5 6 -6
3188 1 -0.01043025411262528 -4.239127649175404 -13.596370396331936 -11.092735328112804 2 6 -1
3248 2 0.02114650012405488 -6.041878219490477 -15.480815180710916 -9.343526706496776 3 6 -5
3250 2 0.04082729911552559 -6.658564736636649 -12.99475716787433 -15.627544935497625 2 6 -1
3129 1 -0.0003541531144699139 -5.933405787891762 -16.542518837462133 -10.836752745166937 4 5 -6
3789 1 -0.0156375984576495 -8.135404745623678 -8.400793021192882 -11.35500304529811 5 6 -6
1295 1 0.008844114658629712 -8.999851354028205 -14.034579246077534 -0.15350120705344183 2 6 -2
1812 1 -0.06352182223538765 -9.534840998939014 -14.850005686743252 -1.2116938512345277 2 6 -2
186 2 0.02145916929571358 -9.009713860569486 -13.524162913131686 -4.683956476058255 4 6 -5
183 1 -0.01517676805117706 -8.56511391416817 -12.668009423785088 -4.741126694443948 4 6 -5
3844 1 -0.00422250279858729 -11.222972301904537 -12.752458830279052 -5.013164372618222 4 6 -5
256 1 0.3192329839619412 -8.519293908132559 -10.004356293829813 -4.75010861936314 4 6 -5
124 1 -0.004486183712014192 -10.600652756224816 -15.61301021950217 -5.872558809144089 5 6 -6
3847 1 -0.04376903796242813 -9.183215219041886 -11.359809469581727 -5.004675899620304 4 6 -5
3848 1 0.0183656603366289 -10.637755694049615 -11.41661698815788 -5.176235740003103 4 6 -5
68 1 -0.003504783662191913 -11.701340313941332 -14.976286219845433 -6.04853770836623 5 6 -6
3841 1 -0.01987057028174859 -11.957109440791124 -13.941473021820675 -4.918226560779109 4 6 -5
3842 2 0.01887499264404884 -12.952437596726073 -13.884768497139884 -4.586984040535957 4 6 -5
1811 1 0.2467599725334231 -10.56085134002006 -15.751481255223132 -0.8432505829976235 2 6 -2
1676 1 -0.009803393606977209 -15.826743570799547 -9.595264455746577 -1.7144482022139675 4 6 -5
3849 2 0.05228139109015297 -11.383899727657292 -10.69445395123117 -5.250505273335852 4 6 -5
3850 2 0.04391440031114759 -8.641212867256103 -9.477416822670373 -8.098034342429173 5 6 -6
72 1 -0.01923846055895034 -9.297280724418863 -16.419157878153754 -5.658336255674047 5 6 -6
3898 3 -0.4499708139628388 -9.02504411130773 -8.86998536083169 -4.983290316247057 4 6 -5
127 1 0.007672149941021588 -12.368102339042341 -15.114862308452334 -7.540085850419343 5 6 -6
1809 2 0.05244713867909371 -13.871215792201049 -8.982641571925951 -1.5727880021058824 2 6 -2
1150 1 -0.0008307092749517131 -14.894667631199171 -10.407996211029385 -0.9960509369471341 4 6 -5
459 2 0.02278004438736929 -8.800669500554653 -13.761772435264907 -7.206771006668461 2 6 -5
48 1 -0.02832916298802602 -15.254021524219514 -16.536963055298987 -7.0412045823413125 4 6 -5
185 1 -0.00458847076632533 -8.959984614942272 -15.470780348275415 -2.5526047816711643 5 6 -6
3839 1 -0.01523281744250383 -13.578623895642854 -14.383618181700255 -7.4083928465310365 4 6 -5
3303 2 0.01373312198310692 -14.375633995148299 -14.113633059522343 -6.711766932570574 5 6 -6
3304 2 0.05398901929191317 -12.936397285402128 -12.39829197259494 -7.6245536480003695 5 6 -6
73 2 0.01465217762799978 -8.58899518969044 -15.622997920194917 -5.37535639173635 5 6 -6
3193 2 0.02972387164528242 -8.864445486063248 -11.06772156338343 -7.8378313282129835 4 5 -6
50 2 0.02063576825988436 -15.981785336617671 -15.819534596489872 -6.5569425244179005 4 6 -5
3306 1 0.001254788185650411 -13.6923762383717 -12.979828444355572 -7.860307134209607 5 6 -6
1225 2 0.0774107142031209 -10.829421584369026 -11.254310998050805 -0.22517158372006887 2 6 -2
633 1 0.03194849550555594 -2.540329516690713 -12.284435786047071 -0.1404398462195696 2 6 -3
259 2 0.02345423529787964 -5.805696874387568 -11.808743046051129 -3.5122362802907032 4 6 -5
76 1 -0.0230796970790175 -3.060122439550085 -13.99145107364516 -5.781344883785015 4 5 -6
1749 2 0.01765063829987162 -8.206126476842458 -13.268046217491555 -0.4150935936932991 2 6 -2
80 2 0.3041352493863348 -1.0693146777994265 -15.949172561332242 -4.739873531094405 2 5 -4
692 2 0.03801707329821944 -2.0691511131388474 -13.674381983357895 -2.459828372464014 2 6 -3
3196 2 0.01718515390351249 -6.752940565977946 -15.054837882102273 -6.715179600785304 4 5 -6
187 2 0.01967997181261834 -5.897765845636208 -13.59145297188226 -3.2792535611696843 5 6 -6
3798 1 -0.04437090949891118 -6.015224068494857 -9.762835539287101 -8.030582479055957 5 6 -6
189 1 -0.008419934237726773 -7.542651023164334 -14.757534946123673 -2.8559302489203144 5 6 -6
3801 2 0.04059041803431063 -6.068026187257167 -9.131667487372642 -7.250870623765007 5 6 -6
3715 1 -0.01008282886476687 -7.7785243172488014 -11.733381250133696 -7.373276619221352 4 5 -6
696 1 -0.003531510413958515 -2.50914899808751 -8.613353128184553 -3.330211959862065 2 6 -3
3718 1 -0.004138095259553564 -5.480247480648976 -12.181752915586985 -6.703819693122282 4 5 -6
3723 1 0.006488481732728583 -2.9273365329515624 -12.201823845658572 -3.8633299076657117 4 5 -6
517 2 0.03278321068691303 -4.587930968774995 -15.393937568424564 -4.434939009593445 2 6 -5
184 1 -0.003055930844598431 -7.346242688087655 -12.547799777994758 -4.204918207397206 4 6 -5
693 1 -0.05162637909273038 -2.659600887122737 -10.47224569138911 -1.6693744720509343 2 6 -3
81 3 -0.669543315893924 -1.5742244430153638 -16.48139175524646 -4.207662372986086 2 5 -4
695 1 0.2573186207355252 -2.26722475648325 -9.603320631263681 -0.5804425602277403 2 6 -3
79 1 -0.005791092868702878 -4.163503139087147 -11.697204063397772 -6.287810166632075 4 5 -6
188 1 -0.02721966630159773 -6.8403121253984995 -13.94036333373581 -3.687897401015422 5 6 -6
3717 1 -0.0001322286604839122 -6.474427258580057 -11.210219154869064 -7.556124269642521 4 5 -6
255 1 -0.02335342954947473 -6.974305845147805 -10.016543491059261 -4.055612234925468 4 6 -5
258 1 -0.02651361889962504 -6.580849889473334 -11.320108885514568 -4.044184585241855 4 6 -5
8 1 0.007969169600438687 -3.6266352920552505 -15.796082863258805 -7.582822741717141 2 6 -5
252 1 0.03028069932519544 -6.176966631846718 -8.82752825178742 -3.8131351788671144 4 6 -5
74 2 0.06782507754171915 -2.4884011864016475 -14.858269264964806 -5.17617844371202 4 5 -6
3716 1 -0.01159579319124307 -7.781066473557543 -13.221060301325121 -7.111174553565909 4 5 -6
77 1 0.002387806182069342 -3.3003912298324387 -12.695320003650204 -5.32613921972307 4 5 -6
82 1 -0.007403199564641125 -3.7300904274866618 -10.564739251511137 -5.47286467758326 4 5 -6
11 1 0.003392834766498331 -3.965058244629661 -14.468505800193142 -6.784005488316383 2 6 -5
3719 1 -0.01930363492273723 -6.681526392117412 -14.004946929511192 -6.992771551486658 4 5 -6
83 1 -0.004793432218597841 -3.0451306581012734 -10.713424871490808 -4.084887892030437 4 5 -6
3727 1 -0.02058369114240634 -2.671811240499759 -12.64604579258527 -2.655810546819558 4 5 -6
694 1 0.007393459159642114 -2.7169682402387956 -9.9423331099172 -3.1666328895559577 2 6 -3
690 1 0.01760355858367433 -2.7238636329551 -11.754314564204966 -1.4403340293762812 2 6 -3
3721 1 -0.002286421790163928 -5.114003945135435 -13.728385183538089 -7.149552378080146 4 5 -6
3817 2 0.01768502619719222 -0.39649544378294543 -13.842150748545459 -7.944478424033538 3 5 -5
631 2 0.0187912200984665 -4.047376078031266 -13.703668998166611 -0.18369300280681858 2 6 -3
7 1 -0.0106407104260438 -4.639877608043387 -16.427101628934253 -4.816801895266953 2 6 -5
2250 1 0.001060123671110511 -13.360416886846245 -12.66403543003724 8.079676935388084 2 6 -2
2258 1 -0.00201700330665916 -13.321037700394214 -12.880310951987422 6.55511925456367 2 6 -2
2256 1 -0.002815243902041374 -15.59536421798072 -15.287095449792925 6.990350705133067 2 6 -2
1745 1 -0.008198150488307132 -12.642950211824678 -13.62912307345595 4.592363478128555 2 6 -2
1746 1 0.003311247444097621 -13.710270289882882 -13.672610468717243 5.466115322885634 2 6 -2
1744 1 -0.01047616342992226 -14.879429879964736 -14.766973338155056 5.865413408863444 2 6 -2
2319 1 -0.002731939633978983 -12.569322466541967 -10.320309518850687 7.877799086746332 2 6 -2
1229 2 0.02541065420690048 -11.017925076836795 -11.825466368692519 1.5366413950920563 2 6 -2
1228 1 0.009756150717054796 -10.202771333899967 -11.884873270315623 0.7329480340569082 2 6 -2
1808 1 -0.05617344066581007 -11.57626134481722 -13.940043315316275 2.039603053358559 2 6 -2
1806 1 0.01036861833703841 -12.04555834383831 -14.057355326809233 3.449109112636947 2 6 -2
2134 1 0.007647474027023381 -15.267093270637822 -15.849436736628107 4.873569560101281 2 6 -3
1223 1 0.1996125009878141 -11.189263357714799 -14.308499912234264 0.9329745779950965 2 6 -2
1227 1 -0.05402727858624397 -10.058934640827216 -13.450694710189117 0.6054641663181686 2 6 -2
2193 1 -0.03362143898174917 -12.660383557111397 -15.779870865581698 3.40110323568008 2 7 -3
2135 1 0.006902598278168224 -13.95343965421033 -16.31888213748804 4.248871152678478 2 6 -3
1290 3 -0.4599805352861956 -11.496510730605985 -15.806386098821426 0.3145906627144245 2 6 -3
1151 2 0.02914153943029056 -14.691190423462967 -12.019382091809755 0.6067225535008104 4 6 -5
2317 1 0.002209189722448782 -12.48172733341417 -8.9841217563412 7.6338364766110125 2 6 -2
1148 1 0.004810914793805819 -16.685790736331754 -11.129516724978542 0.3133585769730069 4 6 -5
2254 2 0.05596724565762122 -15.801474892524324 -16.373860707322038 6.943901551910398 2 6 -2
1231 1 -0.01340482360809698 -8.769092523205206 -11.66980399472481 1.0615519641029538 2 6 -2
1805 2 0.09578607831782487 -12.49817020411939 -15.861284389049812 2.292865820483503 2 6 -2
1742 1 0.005301200366809616 -14.439097657863142 -15.016441534958897 7.9002382782286364 2 6 -2
1226 3 -0.4223875016105013 -9.398617913778363 -9.568254716686578 0.07855752598228449 2 6 -2
1149 1 -0.02134110622429507 -15.204506747463943 -11.272372823859389 0.2217926243042583 4 6 -5
2192 2 0.02251670968956599 -10.617909758808732 -16.172416381779865 3.460518979878719 2 7 -3
1635 1 -0.0214043227714639 -4.49530810559261 -10.408611044375744 8.067767885105624 1 6 -4
1242 2 0.02984721130694117 -0.9801786027221492 -11.587206645323384 0.15694193601341228 2 6 -3
2151 1 -0.01914196197905731 -5.658470697501524 -9.586266641030102 8.067424501469274 1 6 -4
1241 1 -0.001470091632939687 -1.6027515435998856 -12.183148584932662 0.7215108365352387 2 6 -3
1641 1 0.03341873900076234 -0.7932698482692541 -16.062892304133772 7.667158392404952 3 5 -6
632 1 -0.01589971082021054 -3.648876187913743 -12.9870511922352 0.43409503883239564 2 6 -3
1703 1 -0.02893697541774117 -3.0867560128307607 -10.424739043588097 7.768249096899891 1 6 -4
629 2 0.01114585155865924 -6.02896145111065 -14.064900179906136 2.2470393616767277 2 6 -3
1163 1 -0.02516942315983801 -5.543057898578939 -13.1213630543346 2.0541668619462206 2 6 -3
1701 1 0.2770363868567925 -2.8470661936025845 -9.11326786484784 7.120190922944468 1 6 -4
1171 1 -4.186462803705895e-05 -0.7294193966422641 -11.091591253561438 2.818627737303031 2 6 -3
1165 1 0.01439593800970367 -4.1792995807721995 -12.968596026106734 1.8392717165972365 2 6 -3
1112 1 -0.02341549592162588 -1.5065805196885729 -15.037476059284058 3.361755662460559 3 5 -6
1111 1 -0.01234652560022554 -2.2335218404874624 -14.16481212452615 2.703639507414171 3 5 -6
1245 3 -0.5544257117726697 -2.48154424894693 -9.911853984990875 0.8482401548241673 2 6 -3
1247 1 0.2730496856245848 -1.3983410346108875 -9.263521185994383 1.5808887764852315 2 6 -3
1168 1 -0.01054455920574475 -2.9170460309108064 -12.66099546887462 2.8040329571828484 2 6 -3
1232 1 -0.05312779412521922 -6.75880567779985 -9.829316270069913 0.599573619436041 2 6 -2
1160 2 0.01595443127612282 -8.28710962219306 -13.30825061773208 2.536963812750565 2 6 -2
1230 1 0.2604664706857937 -8.26555786138442 -10.2132104397017 0.44123383777527575 2 6 -2
1161 1 -0.01235556927801244 -5.859070288783465 -10.647334817177624 1.2721084221646763 2 6 -2
1646 2 0.01928314793423136 -1.432114951626761 -14.20433828032119 6.721856798966947 3 5 -6
1110 2 0.02977253188279541 -3.149228397384579 -12.302160470010081 3.8238529467477185 3 5 -6
1159 1 -0.02228173652271843 -7.899883910051404 -12.213159941335022 1.9235172632751498 2 6 -2
1708 1 0.0257029489648894 -0.5462965510471062 -11.645287721081575 7.7027368448993485 1 6 -3
1643 1 -0.01483415484100159 -2.997413769602528 -15.688214545108796 7.083528540688459 3 5 -6
1175 1 -0.03207912180497119 -0.5006923270238953 -9.766708633971172 2.702986030972373 2 6 -3
1169 1 0.03780785391097576 -1.6101455151475637 -12.039098464865647 2.094221149481569 2 6 -3
1087 2 0.07863151754780039 -4.697200469240093 -10.320041153935342 1.4745975445662314 2 6 -2
1647 2 0.0395567689209578 -1.188295994793251 -14.715745946287091 4.348439865768282 3 5 -6
1711 2 0.03061029398950401 -0.10186241938235323 -12.721191011512284 5.840864789822314 1 6 -3
1162 1 0.001318531447136718 -6.4732155537603076 -11.94914822720997 1.6334752562451726 2 6 -2
1702 3 -0.4238923162101261 -1.5553669559761596 -8.933952775523325 6.691674842229201 1 6 -4
1644 1 -0.02163435753227881 -1.5175293753228152 -15.15858545450291 7.0855070365214 3 5 -6
1114 1 0.03386421328429756 -1.0281862118901 -16.454233997955132 3.0419681205204383 3 5 -6
1705 1 -0.005513085997383333 -2.1827262005152877 -11.654939392516342 7.709274833097331 1 6 -4
1698 1 -0.0135625070195557 -5.127978045743461 -8.449342693306965 7.173186274062109 1 6 -4
1706 2 0.01836142177621087 -2.279121993136033 -12.344262609036784 6.897029169571804 1 6 -4
1158 1 0.02081000188625696 -7.157869322258081 -8.366951804667725 0.3250955412190521 2 6 -2
1054 2 0.01547572023311051 -2.9667844271092036 -16.679281163905912 2.0263175482523597 3 5 -6
2770 1 -0.02337999813524815 -12.545235694464761 -10.311877986817434 13.168183162646178 2 6 -3
2826 1 -0.004577945571296541 -12.068217237315514 -11.328061576682067 12.423776248443195 2 6 -3
2829 1 -0.01597707145351109 -10.43715617185289 -12.22984425149029 14.277041807937499 2 6 -3
2248 1 -9.727697626009217e-05 -14.916721137106247 -14.131305986255025 12.031664287166194 2 6 -2
2706 1 0.01151153282830457 -12.458713692713907 -14.468542362727197 11.811809809270267 2 6 -3
2247 1 -0.0262562999527817 -14.698023723297744 -12.900494720026748 11.207767849440357 2 6 -2
2827 1 -0.009466098938457974 -11.24639533453014 -12.507491832436905 13.02442085865865 2 6 -3
2702 1 -0.005259179222899688 -13.717550945823293 -15.027349442178055 12.259381227178372 2 6 -3
2649 1 -0.004928798125991812 -11.25563647140748 -13.847892969365764 12.435926231542416 2 6 -3
2245 2 0.03971703286126317 -14.571243692605261 -12.033749032000493 11.537223421778382 2 6 -2
2251 1 0.007269443616415419 -15.018736958353617 -13.0288947555875 9.735453365348897 2 6 -2
2647 1 -0.003134058573463807 -11.012425176245054 -14.815823776367399 13.651850032242372 2 6 -3
2701 1 -0.002480035910271124 -16.21572886034668 -13.775856406201816 12.787315925539962 2 6 -3
2705 1 0.00423484495996416 -16.11865425595835 -13.736426981975322 14.164715151670904 2 6 -3
2643 1 -0.006443204828145185 -12.247215733087527 -15.314353678919568 14.451348505667356 2 6 -3
2832 2 0.01855593095426656 -9.759680681614972 -13.835884658440873 14.94759240439284 2 6 -3
2645 1 -0.004472295607319265 -13.53136441548008 -15.625122616412598 13.648123996309119 2 6 -3
3232 1 -0.01192654005773936 -15.946101899541054 -16.148934322045342 14.895345787658957 2 6 -3
2710 2 0.02572453228782384 -15.25201996323473 -13.941570702600538 14.815221164453503 2 6 -3
2243 2 0.02378445063651135 -11.599374459378206 -12.421962847515713 10.481064201469238 2 6 -2
3955 2 0.07595956335641323 -16.339994134094855 -8.543216979932124 16.103858642331232 4 4 -6
2246 1 -0.02183301429850073 -12.150868164276066 -11.631325945029682 11.072664190313406 2 6 -2
1800 1 0.07508936693360428 -13.255196822518046 -9.389167867959905 12.136454747876515 2 6 -2
2646 1 -0.01748312028799772 -10.106588174743068 -15.880953372124782 13.36362094852707 2 6 -3
2130 1 0.04467147980133347 -14.231728359741362 -16.50610069102989 8.50431594943928 2 6 -3
2314 1 -0.0003619647140014025 -12.889275333632892 -10.97975981907745 10.195418471917826 2 6 -2
1799 1 -0.03137529982002558 -13.566205622960325 -9.928572317704795 10.80895220922708 2 6 -2
2774 1 0.04732706427817038 -10.767872929006781 -11.061532899540415 14.927047331848941 2 6 -3
2772 1 0.243101054631004 -11.698115560647876 -10.20415712180246 14.508445177931488 2 6 -3
2769 3 -0.3712512615933677 -11.608194146141617 -9.457185184818185 15.679710283599139 2 6 -3
2831 1 -0.02680822075299151 -9.193101073110695 -13.049984555495513 14.718011079221094 2 6 -3
2260 2 0.02772593830855001 -9.247044094682353 -13.889559073375592 11.69191495288875 2 6 -3
2322 2 0.04162873068083334 -14.621540853225332 -9.473779557357808 10.437649862443054 2 6 -2
2326 2 0.08822039714845743 -8.760618443906688 -12.582087857742064 15.53343028991618 2 6 -3
2648 2 0.03300806875028253 -9.353004237319166 -16.16064418990068 12.783902613103113 2 6 -3
2249 1 -0.01123244643311464 -16.50077347896912 -12.95951773068948 9.46781586009866 2 6 -2
3113 2 0.0213280926147233 -10.947420878172936 -14.759849517996743 16.348151186372714 3 6 -6
2253 1 0.005942550083992078 -14.155978354441986 -13.644720755320174 8.614861584528281 2 6 -2
3166 1 -0.01216890821803411 -14.712910254461171 -16.302488378296445 13.81645978629138 2 6 -3
3426 3 -0.4616332123925392 -15.67097949574035 -8.804126515607338 13.307273536710017 4 4 -6
2316 1 -0.003727404682257324 -12.94851592763836 -11.3935256411505 8.533393235656492 2 6 -2
3099 1 -0.00389312403473706 -11.745222876917534 -16.446250148368268 15.08281467272405 2 6 -3
2201 1 0.3545457874041692 -8.660395614689355 -16.614977507100733 9.630272579401643 2 6 -3
4026 2 0.01730412899470064 -11.029005692664866 -8.646978100489482 10.372624062722378 4 4 -6
2127 1 -0.03713135787944626 -14.425793909795802 -16.685222645748254 9.836056530440786 2 6 -3
2708 1 0.4022156665700727 -16.70518985495629 -12.165325362775727 15.907790539079425 2 6 -3
2150 2 0.01561072428696003 -6.57089185592894 -9.625565801259562 8.6204856809296 1 6 -4
2612 2 0.03925198591522866 -1.4054779830522615 -16.486897257111245 15.087409012472607 2 7 -3
2262 1 -0.01986424113590522 -8.298444923393506 -13.807838695346602 12.281156139663645 2 6 -3
1636 2 0.01470861041223786 -4.816410519636825 -11.308820315365203 8.652265399174276 1 6 -4
2264 2 0.01861185401117464 -7.11769963024456 -14.125300461776769 9.582688890644539 2 6 -3
2730 1 -0.009080827752974502 -2.1002722019256237 -12.057507441825232 16.655157343914222 2 6 -2
2736 2 0.02444983385957275 -2.272024607005506 -8.732124443103736 15.98084764934957 2 6 -2
1640 2 0.008449919168380199 -2.392151026415172 -12.201630392178123 8.691947777496507 1 6 -4
2609 1 -0.02102562575314843 -0.6100677353274735 -16.131955673425704 14.476865279879105 2 7 -3
2725 1 0.1441898736107405 -5.100768126246062 -12.304982177041138 15.51974739334282 2 6 -2
2833 1 -0.0113429509491394 -7.969632542021165 -13.169942701076616 13.61915234111935 2 6 -3
2731 1 0.003859899363604634 -0.6118871597229277 -12.059521615397642 16.433045670070264 2 6 -2
2789 1 -0.01940476236847257 -0.25116812251470627 -13.084867164146578 15.352355018476025 2 6 -2
2267 2 0.02157385115111132 -5.565491248224342 -14.8967493185793 10.572593859997758 2 6 -3
2199 1 -0.08047617962586082 -7.170809610605547 -16.19532624328593 10.153021696521423 2 6 -3
2779 1 -0.01817999612224349 -5.701460420323826 -13.553359188954895 11.89812270532672 2 6 -3
3056 2 0.01274821558364883 -4.215662096763435 -15.111615118539499 9.352818600194848 2 7 -3
3057 1 -0.02553374828386878 -4.001233928026752 -15.72568898272338 10.229978073899932 2 7 -3
2596 1 -0.01863777045835979 -1.9879481972050985 -15.946813159011928 11.540611825554668 2 7 -3
2835 1 0.1748083692745482 -6.717859331856197 -12.732610450031684 13.937802608707175 2 6 -3
2608 2 0.01674917440135166 -1.2643074687915883 -15.078214589537225 11.758367173050154 2 7 -3
2783 1 0.001551961981952031 -2.520216623121906 -12.309614756580842 15.270295298665696 2 6 -2
2265 1 0.001237209796613702 -6.97072052669107 -14.064784842826137 11.713658158487766 2 6 -3
2790 2 0.01342824490454586 -1.5923531574047638 -13.105818083684435 13.275963107565422 2 6 -2
2782 1 -0.03220537443546739 -3.907741424477574 -12.168359494544747 14.593277552291747 2 6 -2
2834 3 -0.4413700799394598 -6.799944944655472 -11.99293456002071 15.436245705036105 2 6 -3
2780 1 0.002947625750487327 -4.113565994379256 -12.23516346197576 13.27707517136908 2 6 -2
3059 1 -0.01333697489882708 -2.778756690261969 -15.269935269760184 10.67169830944352 2 7 -3
2781 2 0.01224119640109888 -3.5488511178420854 -12.337558504806907 12.443265998375661 2 6 -2
2786 1 -0.01477819958209866 -1.3954887976532449 -12.846942623248713 14.444832058749613 2 6 -2
2837 1 -0.03674790016810742 -5.573812362804419 -12.733466265608316 13.069735453257048 2 6 -3
2724 2 0.012401607965564 -4.427281904251888 -13.419978062763642 11.646870083349679 2 6 -3
2266 1 -0.01372196022274946 -6.641290129371722 -14.843473476735024 10.317257468620113 2 6 -3
2734 1 -0.0220090659836374 -1.8364983546180969 -9.703066784460953 16.16513350292734 2 6 -2
2735 1 -0.008760563878696045 -0.3056223510446317 -9.519046178856517 16.47178515355608 2 6 -2
3971 1 0.0006992432061856887 -14.585813379210018 -1.6944303799088962 -15.182538663720688 1 6 -3
3974 1 -0.0007030492886861694 -12.752491095440538 -2.397776300354717 -12.005347028388355 1 6 -3
3897 1 -0.04935242734722322 -13.424167616856517 -1.6225183383695454 -15.994046094098879 1 6 -3
3899 1 0.2361834678369543 -12.263191824222424 -2.170408088870985 -15.331523880664681 1 6 -3
3975 1 -0.01097326702160945 -12.66060318379482 -2.821881530329459 -13.198169908770828 1 6 -3
3977 1 -0.03299634061238019 -12.443119984742557 -3.324903668791613 -14.465401940727238 1 6 -3
3979 1 -0.00686743049202514 -11.741480780410855 -4.8165991033089135 -14.550983946937514 1 6 -3
3980 2 0.04209199345986257 -12.272754339147607 -5.260127117787561 -15.422927930185036 1 6 -3
3901 3 -0.472389502656565 -10.86149030555813 -2.228499647511137 -15.915752323505624 1 6 -3
301 1 -0.001453884365056404 -15.649522912368854 -1.3252779804577275 -12.8792060315184 3 5 -6
302 1 -0.003771648472775696 -15.259155137923129 -1.6365703572969288 -14.172632014694484 3 5 -6
3907 1 0.2225973236242758 -9.742468765259325 -3.294314262355917 -15.4021524843417 1 6 -3
304 1 -0.00626294613061712 -15.974862573765051 -2.2321504490194637 -11.595332487804916 3 5 -6
3972 1 -0.03592202402985131 -12.894039382690217 -1.6360061983396765 -10.76377369039878 3 5 -6
3978 2 0.01288462280155537 -12.04759423443387 -5.163193479891647 -13.608865764230067 1 6 -3
3908 1 -0.0161289579421586 -9.498727114644396 -6.7415301194256925 -14.635288976517302 1 6 -3
3904 1 -0.07405455767128866 -10.069024186177884 -4.597929231126197 -15.100597149847852 1 6 -3