LAMMPS data file via write_data, version 2 Aug 2023, timestep = 1870000, units = real

3165 atoms
3 atom types

-16.71546325737322 16.71546325737322 xlo xhi
-16.71546325737322 16.71546325737322 ylo yhi
-16.71546325737322 16.71546325737322 zlo zhi

Masses

1 12
2 1.008
3 15.999

Atoms # charge

686 1 0.0507951972471996 -11.54358590477147 -12.731284791030635 -9.430984018713572 4 5 -6
749 1 -0.007612505268052273 -10.702689320767668 -12.565464663882961 -10.440485728352193 4 5 -6
261 1 0.005887793022437325 -9.9903131336815 -12.207515985254032 -11.530095995523228 4 5 -6
263 2 0.02951439958416086 -10.28200073995786 -10.5077055795603 -12.735077216448525 1 6 -3
744 2 0.03492547887602666 -14.969256637926533 -11.297563800817343 -10.64364248008123 4 5 -6
743 1 -0.03637274966436448 -14.716672264423106 -12.2629464715224 -10.85618118556193 4 5 -6
746 1 -0.005732080654435995 -13.992312712157508 -13.09503108529328 -10.000066930295725 4 5 -6
685 1 -0.01255191602844335 -12.901031523690168 -12.303568316838295 -9.03637412224962 4 5 -6
307 1 0.2423383860664965 -13.209848779232274 -11.245357601421789 -15.217846667286997 4 5 -6
741 1 -0.004580063497238471 -15.43636808012623 -13.043554070846909 -11.841695625459984 4 5 -6
306 1 0.03288933255492039 -14.30862136002038 -11.020595522598109 -14.320357870797364 4 5 -6
739 1 0.01177776103614352 -15.055230951031389 -12.163200742700885 -14.110600159453233 4 5 -6
810 3 -0.4211805579839945 -12.975230645573802 -9.789026185174878 -14.913211061606619 4 5 -6
738 1 -0.03746760387723955 -16.20856487119371 -12.300906178136575 -12.979772805272052 4 5 -6
745 1 0.2044302499484088 -13.983026952254036 -14.454528770828862 -10.212313615413473 4 5 -6
752 2 0.01794291590256532 -9.633659881807938 -10.057042073818959 -11.237967949981455 1 6 -3
264 1 -0.05150940980374741 -9.602790902078148 -10.750361299259351 -11.942162406983059 1 6 -3
262 2 0.03298940029121562 -9.046233318839615 -14.195505247521178 -11.613369826514276 4 5 -6
195 1 -0.01931624526524373 -8.992527824597165 -13.121661237024727 -11.934734267992338 4 5 -6
253 1 -0.01198737508060672 -14.514440803531238 -13.38720787020643 -14.535924983152436 4 5 -6
257 1 -0.02695219750738521 -12.471184585525735 -12.232752481027436 -15.786788119956892 4 5 -6
687 2 0.02545479477057268 -13.448568855646164 -11.334020737286256 -9.356228570824 4 5 -6
735 2 0.01673465561916451 -15.055265694298487 -14.30539040577104 -14.247280310488854 4 5 -6
254 1 0.02010947755290418 -13.312330198307226 -13.398238831308525 -15.470927559894566 4 5 -6
252 1 0.03083835594480212 -12.49055238459178 -14.44248324389512 -16.14971493976317 4 6 -5
317 2 0.04090940070697473 -10.057357845481134 -8.592323743903583 -14.48329759988111 3 5 -5
740 1 -0.02422606212347572 -15.577350453823646 -14.592462508261601 -11.879588969624175 4 5 -6
742 1 -0.0364458317968897 -15.289842278889028 -15.083007257640169 -10.510177595290513 4 5 -6
110 1 -0.05788547011641564 -16.456160235949373 -15.84412599447059 -15.358018536844748 4 6 -5
679 1 -0.01238380550406162 -16.269171007766708 -16.124330010221 -9.90672537661591 4 5 -6
427 2 0.02717827485071965 -16.595813945683403 -9.130299300780704 -14.504346484323587 3 5 -6
737 2 0.007369580661705189 -14.945707573466851 -14.613857959366394 -12.708051778325222 4 5 -6
251 2 -0.00204822648458055 -12.066794227822745 -14.906521407127116 -15.301901445822082 4 6 -5
681 2 0.06576385810055838 -16.212213462379424 -15.559522163767646 -8.871759419989612 4 5 -6
683 2 0.3267338490436942 -13.087496676225395 -15.989620768246356 -9.45927952133898 4 5 -6
626 3 -0.6348724776000287 -13.115699733041534 -15.203428790313012 -9.142519944567626 4 5 -6
4087 2 0.1163698263422629 -14.697369908520855 -9.221587243975044 -14.845704736925772 3 5 -6
3772 2 0.01240447599472718 -15.532938243946102 -15.879876199439275 -14.722096292640838 4 6 -5
112 1 0.1896660189111401 -16.41916189900535 -14.767405123943128 -16.260943528232662 4 6 -5
429 1 -0.02473770627987409 -15.674903919347777 -8.71566526516824 -14.99280132657465 3 5 -6
878 2 0.02409126885984614 -11.859220203751375 -8.776814718470888 -10.843813132309897 4 5 -5
260 2 0.08617817506723063 -11.491895737901237 -12.162388321054488 -16.64335369030522 4 5 -6
1309 1 0.01083889111623753 -5.466286437838497 -11.005434086735669 -8.90571558022717 2 6 -3
1314 2 0.01346540900710429 -2.4159345167909976 -8.562150075920881 -8.922315252632494 6 6 -6
211 2 0.03423731919136669 -0.33196331041950466 -15.210057934468526 -11.20377253277203 1 6 -3
3951 2 0.06969246601715695 -0.8834016829536261 -15.82903466883278 -15.16441635084554 3 6 -5
1823 2 0.07070209691043965 -4.686729511239982 -13.250866875315664 -8.719719276268586 2 6 -3
1306 2 0.03039702554506716 -7.533851815545742 -10.84513017842681 -8.713620711147785 2 6 -3
3534 1 -0.02383728061204999 -0.7757782621240787 -8.772413853234212 -15.694228141240218 2 5 -6
697 1 0.01996308522952199 -6.4397675335478235 -14.500298699020021 -12.52083046949831 2 6 -3
756 1 -0.009874724359214458 -8.050857555522713 -10.858034222862251 -12.013764283997437 1 6 -3
1250 1 0.01096143696868711 -2.44465484676628 -14.994854767690377 -9.690395136571798 2 6 -3
3944 1 -0.02328043641847838 -0.4377395240479817 -12.948473406311134 -15.975249407116744 3 6 -5
4011 2 0.01561293686269052 -1.7770523162732805 -12.977148101251816 -16.03446544973556 3 6 -5
1312 1 -0.05634216949317748 -4.629436670883517 -8.900615723999977 -9.02596744323094 2 6 -3
699 1 0.2564719799722147 -4.383180746732493 -14.42542880399724 -11.176797696865972 2 6 -3
279 1 -0.004999178941624622 -1.2155187641901994 -11.871840881980141 -14.2284426415891 1 6 -3
265 1 0.008027325841048556 -7.875044535185453 -12.226276235127031 -12.258981331532597 1 6 -3
1249 2 0.04295190174291524 -2.1128287049375607 -13.74776887142864 -9.584273362973855 2 6 -3
694 1 0.01354988825540174 -5.131383078854754 -16.642990340392405 -12.537011699601475 2 6 -3
269 1 -0.01999543099072703 -4.822935245884694 -9.087731318871828 -16.318735028825113 1 6 -3
328 1 -0.04758542484375409 -5.144276041350709 -8.503279961125394 -14.85623088311508 1 6 -3
758 1 -0.007972329179674172 -6.84908952911375 -10.037357410391898 -12.158114899408684 1 6 -3
765 1 0.2285279404609832 -5.424543516053033 -12.281161447971131 -11.856576931777983 1 6 -3
266 1 -0.01566157649106131 -6.088304155552081 -9.243604399737555 -14.056462351792453 1 6 -3
1311 1 0.004748666274140955 -4.285678320488325 -10.224408849354248 -9.639786218831393 2 6 -3
696 1 -0.03186747476773334 -5.225436215242327 -15.114631889721373 -12.155050173004398 2 6 -3
3529 2 0.04130988455732922 -2.2496829002889664 -8.481713378938997 -13.870341842000002 2 5 -6
280 1 -0.007704531267935057 -0.865586025371748 -11.270639835027344 -12.926677270163669 1 6 -3
267 2 0.01883560352719072 -5.954158397245152 -10.222936844009132 -14.58263561047644 1 6 -3
826 2 0.04125130050095801 -3.5838647229625034 -10.25105949125683 -11.756464995989846 1 6 -3
761 2 0.01726796699599588 -8.234127530744017 -8.679341034710715 -10.014867036202212 2 6 -3
762 1 -0.03410718918038856 -5.504269685503308 -10.80228153265382 -11.759352624258241 1 6 -3
281 2 0.02324283123927157 -2.1595027708848082 -12.012075376096897 -14.746211447312989 1 6 -3
325 1 -0.01783552137889802 -6.728403070847267 -8.65737306240922 -12.960513898803828 1 6 -3
1308 1 -0.05897833135372921 -6.856502211373049 -8.789672894205816 -8.964367683834285 2 6 -3
763 1 -0.05509660991323316 -6.598687038380308 -12.971156767869015 -12.221794366652098 1 6 -3
698 1 -0.02260081039169677 -3.455102152720524 -15.316125701438434 -10.678545519754325 2 6 -3
208 2 0.01093919869707984 -7.102424787984445 -14.901580655042029 -13.442573867701713 2 6 -3
700 3 -0.5064351020493101 -4.108135082224911 -12.95830076106636 -11.402653757026963 2 6 -3
832 2 0.02313381099267416 -4.6942530988635305 -8.82360614052379 -11.396883162352074 1 6 -3
3536 2 0.02018185497849547 -0.12855429813663313 -9.455679445652153 -15.25116329040364 2 5 -6
1253 2 0.01318656181058002 -1.5807433774282331 -15.584798713235902 -9.970636009036621 2 6 -3
828 1 -0.02163118814717669 -4.519233779790934 -9.84145736221767 -11.108917204905413 1 6 -3
271 2 0.01715127125429311 -5.00607524723936 -10.073844228826356 -16.399974445528915 1 6 -3
282 2 0.01883851936789658 -1.1611703293113826 -10.179600504799032 -12.603427627361887 1 6 -3
1307 1 -0.0248600340409127 -6.724755516613717 -10.21153661562297 -9.131093551439351 2 6 -3
1313 2 0.02989239686363282 -3.2316186131520697 -10.622649955770935 -9.386306076565036 2 6 -3
3949 1 0.00180884862682314 -0.4449163786076642 -15.591101848120347 -16.186661055606816 3 6 -5
278 1 0.007733156275833673 -0.10980752341532712 -12.108598307300293 -12.14201237587132 1 6 -3
1254 2 0.01223456275969363 -0.37253127554203713 -15.539224250260826 -8.509274871909046 2 6 -3
1235 1 -0.002076305637742078 -11.650383238033342 -10.092256370668183 -3.114724275515597 3 5 -6
1752 1 0.008934412895414169 -10.595420058712794 -10.71021678951268 -2.5976578862190025 3 5 -6
1754 1 -0.009828991741486577 -10.634304621045715 -12.060880637053232 -2.588380081790906 3 5 -6
1236 1 -0.001535895257961141 -12.473177571731688 -10.94386231955784 -4.117072172548271 3 5 -6
1689 1 -0.0001576442351497835 -10.00425948939552 -12.634460208343425 -1.3974071751338601 3 5 -6
1687 1 -0.005974499937923936 -9.974896197816363 -13.858892408934956 -0.6711472363985417 3 5 -6
1686 1 0.01357879345647148 -10.210646426499169 -15.13618129417072 -2.657219460254581 2 6 -2
1690 1 -0.02866182046832548 -10.76333632591659 -14.286293806964792 -3.584819907533493 2 6 -2
1755 1 -0.04193116798939711 -9.486011741319011 -11.532406588271591 -0.8035394891620543 3 5 -6
1237 1 0.0154145008271166 -12.437577917101718 -12.283943994617829 -3.990360245970314 3 5 -6
1239 1 0.0285742570589298 -11.3310207203057 -12.836726891049514 -3.300140075202965 3 5 -6
1627 1 0.1494795125467862 -10.25233195440469 -14.180883823914302 -4.9465954331580715 2 6 -2
1361 2 0.01706155777570447 -13.395946711427834 -10.732532888731647 -4.365629488723127 3 5 -6
1240 2 0.05496704757219235 -12.987989417777241 -13.4361845974256 -4.597557285872186 3 5 -6
1691 3 -0.5032230164535685 -10.745707395817435 -13.050777474060606 -6.005883209115099 2 6 -2
2321 2 0.04733736295972287 -14.342458014107038 -15.985512149524244 -1.9905138766800567 4 5 -6
2396 1 -0.005765592989190459 -15.56651120092646 -11.192617411228873 -1.243543811537021 4 5 -6
194 1 0.4494402450306125 -10.324535914879172 -13.892370013354522 -7.195660181039346 4 5 -6
1624 1 0.1651567623514737 -9.601838853288317 -15.149109096080222 -5.508468442601765 2 6 -2
1685 1 -0.03521321387920902 -10.530711647423008 -15.094487243116765 -1.1165670347120138 2 6 -2
1748 2 0.02687081974616522 -11.69157812180687 -14.822582115644265 -0.9156864556772286 2 6 -2
1684 1 -0.02980028870166734 -9.179088485598092 -16.047267850480345 -3.2831866525358078 2 6 -2
2200 2 0.03714209176024359 -10.082905885042267 -16.08117223660447 -0.8294196275192529 2 6 -2
1622 1 -0.02604056070735658 -9.13572595590643 -16.098900332719552 -4.816166689242079 2 6 -2
2323 1 0.01108798990669523 -14.486984938032341 -13.644929564065825 -1.360044150641263 4 5 -6
191 3 -0.4861208805872255 -9.541409255956673 -15.245571803787278 -7.109427880488199 4 5 -6
2320 1 -0.0286287196007277 -14.669518310740083 -15.185360378429852 -1.16212809214851 4 5 -6
2325 1 -0.02243061555199258 -14.992145298309195 -12.773263543907989 -2.545995929034628 4 5 -6
1757 1 0.003041090793243932 -9.761112681028049 -10.339674209529058 -1.4804144759630118 3 5 -6
2327 1 0.01714380460669927 -15.840937667324333 -11.512771869548502 -2.5578661898922825 4 5 -6
2328 2 0.02542089229959885 -16.367828692832003 -10.154735461748505 -4.823669335130222 4 5 -7
2324 2 0.03216580250504631 -15.510379541982523 -13.03756600308971 -3.4870834997382567 4 5 -6
2389 1 -0.0262585577218672 -13.71062904820933 -12.753942489184514 -0.4945005470188594 4 5 -6
2329 1 -0.05084917322043163 -16.68202975035234 -10.35704946598058 -3.6401855190376864 4 5 -7
688 2 0.07515268278154119 -12.852528154213108 -12.47807621756137 -7.943028184009233 4 5 -6
1746 1 -0.01484864402281184 -16.535061649928544 -15.986796382394083 -3.946627051129993 2 6 -2
1758 2 0.06379112786163769 -9.614373712020248 -9.35438948783472 -1.1004738891715082 3 5 -6
2394 1 -0.008049445206965426 -14.033819621836724 -11.40268799843343 -0.5824830404461646 4 5 -6
2317 1 0.006154454493159031 -15.351531945165524 -15.261839570102234 -0.19939215658207818 2 6 -2
1813 1 -0.001096055056866087 -11.856725308966602 -8.704145578426235 -3.187589877464902 3 5 -6
1809 2 0.0387193990765785 -16.394700705999174 -16.211484970394906 -4.91057135811317 2 6 -2
1417 2 0.01952971671615323 -15.133626417844793 -8.85057890328831 -5.1524878066873665 2 7 -3
192 1 -0.01547845696170854 -10.857534440693252 -13.601245919575621 -8.212273593175494 4 5 -6
1086 2 0.04718427847312665 -7.69161121739061 -16.566241663680714 -5.870149122273561 2 6 -2
1838 1 0.2585804899014988 -0.5552596545530057 -10.130479024368098 -1.147373400359419 6 6 -6
1248 1 -0.04243631786561702 -2.437910481562764 -15.585292157337511 -8.270472887853762 2 6 -3
1257 1 -0.0195393705896153 -0.39798473283611396 -11.96559955030333 -6.886915888555834 6 6 -6
1245 3 -0.5255199770313581 -4.907487317703033 -15.883123054243933 -7.882577558750102 2 6 -3
1836 2 0.2885209437787982 -1.0747248456195722 -13.984107624290996 -3.356697250642787 6 6 -6
2212 1 0.2432479262154283 -6.937844407435057 -16.58660127610225 -0.13408260147125778 1 6 -4
1256 1 0.007711912911613467 -1.6046560982073166 -11.082517677791476 -6.674327647086756 6 6 -6
1896 2 0.03119685592204111 -0.9203814286660891 -10.018534023688245 -3.1232269477865855 6 6 -6
1251 1 -0.002817297535978789 -1.1666435625455656 -15.788285096374882 -7.854614717156193 2 6 -3
1772 3 -0.5935116469841367 -1.1417576084776588 -13.80814713307678 -4.292952282918613 6 6 -6
1776 2 0.05529040347334288 -1.66481303169891 -16.120874968784644 -2.655564559803377 1 6 -3
2282 1 -0.05093781958295614 -6.465141728917172 -15.185050964083768 -0.5234957321722418 1 6 -4
1833 1 0.1511358307769641 -3.245040586086226 -11.08913409208985 -2.5821544677802035 6 6 -6
1827 1 -0.02189049815599831 -6.357277197278381 -11.278526088577907 -6.090734218090791 2 6 -3
1826 2 0.03581421927562543 -6.209862080316961 -10.169155765167538 -6.059277297207888 2 6 -3
1185 1 0.003585256777824088 -0.3523321085551465 -16.61483097535431 -4.1660353816282925 1 6 -3
1778 1 -0.04882097822430832 -0.9202072642029501 -15.977455520699973 -1.9164699433494423 1 6 -3
1835 1 0.1669535050748813 -2.2506608226011195 -11.55479496947168 -1.8318146206054178 6 6 -6
1839 1 -0.0750952316317661 -0.776150206387919 -11.535092024011904 -1.5662587529098684 6 6 -6
1247 1 0.3553930400586654 -3.793885652259917 -16.345111975461403 -7.7144665864453055 2 6 -3
1837 1 -0.08654716738743171 -0.8556243449689624 -9.574798710020021 -2.2383090851348864 6 6 -6
1255 2 0.04141889195017846 -0.587681299631809 -12.993363530353648 -7.160848695883713 6 6 -6
1841 2 0.02946166653940405 -0.7516670310506657 -13.482125684083524 -1.7509412798895347 6 6 -6
1765 1 0.01351317376247853 -6.0052332785799125 -15.803536556897546 -2.6870362673600003 1 6 -4
2284 1 -0.007043618650299878 -5.777312843567426 -14.806048047541246 -1.7021116984375357 1 6 -4
2285 2 0.0645170594702128 -5.17414648938574 -13.670592321828488 -1.9025215089212175 1 6 -4
1829 2 0.03338500312887033 -5.652546618735555 -9.710747063686417 -3.8524125219420466 6 6 -6
1779 2 0.02634058018248578 -0.8850803105258541 -15.00374514310223 -1.3945778875855808 1 6 -3
1766 1 0.009809737520752287 -6.0942122400472325 -14.004114686402373 -4.764739864430795 2 6 -3
773 1 -0.04665136674529274 -3.0043368251516798 -10.067175134424858 -4.972942633390589 6 6 -6
1764 1 -0.01643562912264944 -6.1553408949080195 -13.764804258854417 -6.221730406646874 2 6 -3
1172 2 0.107855842661796 -6.2250518010884885 -14.637837491306465 -6.8721048712487445 2 6 -3
1828 1 0.01285998788399336 -5.791684203390022 -11.68730362100392 -4.830980257771919 2 6 -3
1767 1 -0.02641004420542862 -5.669342247022211 -15.513921268165758 -4.222236676849935 2 6 -3
1824 1 -0.005174549166952324 -5.2550801199848864 -12.31403953451547 -8.226908779926886 2 6 -3
1259 1 -0.01545329912970443 -2.4048438606602383 -11.177501346853509 -5.361849500429588 6 6 -6
2352 3 -0.4468985490184915 -3.1795968884815182 -12.568538081513278 -2.4895314123554444 6 6 -6
1770 2 0.06887228340434122 -4.520640027606568 -15.458257282765548 -4.565093794662568 2 6 -3
1834 1 -0.005999316213376217 -3.702030642803418 -10.387885805719247 -3.6897495944027505 6 6 -6
1260 2 0.1142170657254577 -2.243522461940148 -12.082439664380022 -4.692526351372363 6 6 -6
1320 1 0.2598265071357522 -3.285358278735246 -8.980103208709764 -5.8692829773408395 6 6 -6
1319 1 -0.02519540065055869 -2.211799762729381 -10.08490097474399 -7.476619201545583 6 6 -6
1318 1 -0.04017793604200824 -3.075138061658385 -9.054472635023277 -7.201893398857281 6 6 -6
1769 2 0.03082347560295501 -6.255683707268917 -16.06780330946382 -5.075098927678034 2 6 -3
1825 1 0.02467557214604051 -5.962165829750091 -12.39707125205682 -6.850805742750039 2 6 -3
1832 2 0.04429702155390521 -5.650905945546956 -12.751941340313596 -3.050063008167953 2 6 -3
1831 1 -0.00696305764613463 -5.117922096822332 -10.557637105293894 -4.003804812656228 6 6 -6
1830 1 -0.02230806137106046 -6.0399352908255555 -12.928374234086366 -4.038095243434254 2 6 -3
1777 1 0.2232032131375153 -0.036666707397413276 -12.746564877687794 -4.344401487282833 6 6 -6
1317 2 0.01360544766311641 -1.3156162302512873 -10.378542052640809 -8.350102636390423 6 6 -6
2770 1 -0.03834570580247103 -14.502545905642437 -16.549589224449655 2.642371686100318 2 6 -3
2397 2 0.02346066998024346 -13.048623306771812 -10.899760726401583 3.241083425638331 4 5 -6
2901 2 0.02884929933948903 -14.975865982678256 -10.118979400817828 5.428115140163696 4 5 -6
2903 1 -0.009816313024774207 -13.285633882314922 -9.986307790314614 2.7704808996765498 4 5 -6
4026 2 0.02319255600039827 -16.59451687579593 -10.99387870104395 1.8193953214868164 4 4 -6
3438 1 0.1812763713785067 -11.838517086986819 -9.23390861100368 6.5761544697984355 4 5 -6
2905 1 0.007254297269187877 -13.659582527816179 -9.612768211991465 1.391647125455344 4 5 -6
3441 1 -0.01972474042495674 -14.092044691292552 -9.587745396885023 5.366219130631387 4 5 -6
2904 1 0.01490947786460635 -13.73247811558011 -9.112013063495027 3.8154331699860107 4 5 -6
3442 2 0.02189258179397802 -14.456365855973926 -8.658488495344857 6.003521652296892 4 5 -6
3440 1 -0.0439606075273391 -12.908396666708065 -9.974439448879354 6.108587208702762 4 5 -6
3372 1 0.00870109241874055 -12.539484367153923 -11.410453779635368 6.609052091255602 4 5 -6
2204 1 -0.01998889826890474 -9.65911173586161 -13.93190543703371 0.6103486459259565 3 5 -6
2322 2 0.01857516079320545 -14.108596837586648 -14.450661839002807 2.067952883794417 2 6 -2
2202 2 0.03368680804658426 -9.865195726009363 -14.718288078972787 1.2253546563154187 3 5 -6
1800 1 -0.00868415435245809 -15.06476821739059 -14.992783201885965 2.0003087380846365 2 6 -2
1756 1 0.2752390457089992 -8.786579450432315 -11.336664099280245 0.6548851759936967 3 5 -6
3370 1 0.1206005755472997 -10.858191101032954 -9.417676493024068 7.56064331969363 4 5 -6
2272 1 -0.07532327390445345 -9.074696985762234 -12.563945109944632 1.2030667934393589 3 5 -6
3373 1 -0.03202592663879235 -11.33409731014604 -11.71775598857777 7.292044775977196 4 5 -6
2274 2 0.0196247958156593 -10.5836819673877 -12.73844446875067 2.804978371021606 3 5 -6
2319 1 -0.001522426041762715 -16.17438854297921 -15.083655922198911 0.7405627052061748 2 6 -2
2277 2 0.02350739651882249 -8.936270081208134 -13.376868403239797 3.3486840773562614 3 5 -6
2275 1 0.0007440688682780298 -9.334915096422192 -12.653894307664448 2.718004342669895 3 5 -6
2271 1 -0.06498956477417091 -8.780966227693764 -11.339409663601971 3.3717358120506193 3 5 -6
2395 1 -0.01715810434429306 -13.196282754282551 -10.421101984859966 0.08512744503594591 4 5 -6
3375 2 0.02775080996892584 -10.838208411389967 -12.464331226431186 7.974668506207537 4 5 -6
1799 1 -0.02665310110440242 -15.838500897204684 -14.768590696720555 3.151721606215201 2 6 -2
1801 2 0.06652408544498425 -15.56501590146758 -14.865182107598644 4.348481485866354 2 6 -2
3382 2 0.07068641217741005 -12.00906067479332 -15.348970061989487 6.591599269360792 1 6 -4
3371 1 -0.04748394663349096 -10.687296259477018 -10.589219194368715 8.276804927538537 4 5 -6
2270 1 -0.01049616677554253 -9.130951613073051 -11.56591968033407 4.795047544151607 3 5 -6
2269 2 0.0159296467580984 -9.568894555115852 -12.504311098022495 5.19610984852283 3 5 -6
3320 1 -0.02149271465965371 -12.153190306695604 -15.053555691442028 7.610419374611837 1 6 -4
2335 1 -0.03818130294869092 -8.643295255858327 -8.910232493577356 3.6108259685161923 3 5 -6
2393 2 0.0253408271240136 -12.356330088157613 -11.12661095870041 0.3433680183006038 4 5 -6
2331 2 0.02436002978246348 -8.920622546522141 -10.408756915094441 6.630047844492795 3 5 -6
3980 2 0.05381447607803734 -16.228341211866613 -11.184129934325501 8.14189443346331 1 6 -4
2333 1 0.0105356185098387 -8.613244941032852 -9.07962797185088 4.877201432633069 3 5 -6
2268 1 -0.02771915797392989 -8.673702196318793 -10.402240953218682 5.545868090743985 3 5 -6
2772 1 0.1308410665329003 -14.442129074791579 -16.35956841161301 3.982682670231736 2 6 -3
3321 2 0.02874935280133181 -11.097290167906504 -14.481296897926686 7.88534990147466 1 6 -4
3906 1 0.02379305774929063 -14.355383373676267 -13.100425980516846 8.058513417815433 1 6 -4
2769 3 -0.4645123583746779 -13.98911871379522 -15.96432836624152 5.496283269178251 2 6 -3
3908 1 0.007205891565457867 -13.052077354834699 -13.99646868668755 8.195431184945095 1 6 -4
2318 2 0.01324408136567599 -13.275976614572395 -13.209891806088692 0.45153259502473136 4 5 -6
2865 1 0.004355489806728514 -0.28585346356693125 -11.816419280945434 5.28344333513603 4 5 -7
1759 3 -0.5299352235728766 -8.303761788131938 -10.146571742197013 1.3153610449389703 3 5 -6
2273 1 0.2609530924840881 -8.349448031957754 -10.219482446381255 2.788988874513502 3 5 -6
2863 2 0.03521920607747338 -1.7329149219291067 -8.721136199487097 3.381495043503334 4 5 -7
2280 2 0.02018922429191876 -6.916434835005004 -13.054152473030731 0.2249512169336347 1 6 -4
2791 2 0.01346225959071702 -4.177824100661041 -10.226935842674251 6.364701110644585 6 6 -6
2866 2 0.03483886771810289 -0.8777329132614358 -12.305386756419459 3.358978108274286 4 5 -7
2209 2 0.04074735810133125 -7.806176137975299 -14.448229349326642 1.0520384221495522 1 6 -4
3402 1 -0.008856105322284119 -0.7531345433938945 -12.229173363541644 6.693689358978922 4 5 -7
2798 1 -0.06823412710917393 -5.062517323201692 -13.607559308274062 3.828023219609999 1 6 -4
3401 2 0.01657944467336285 -1.8207906593674832 -11.943294555791356 6.173880982026242 4 5 -7
2213 2 0.04384324109384454 -4.461976370225246 -16.397436603672766 1.065930004269129 1 6 -4
2281 1 -0.01687482584364332 -6.740001679959076 -14.116811150695753 0.6154918193184494 1 6 -4
2799 1 -0.05060599236181335 -4.2975217739942995 -15.690244988951926 2.9490523405552795 1 6 -4
2797 1 -0.02430608418029728 -5.452172606651788 -12.243160401228616 4.8332657323386 1 6 -4
2862 1 0.03158747560491244 -0.8358585937735892 -8.92296859490536 2.8786936039332365 4 5 -7
2932 3 -0.5047956625232471 -0.8777418449433471 -9.320748222063699 0.049966523418014136 4 5 -7
3340 1 0.01755433560109572 -0.09578167097720659 -13.463906805753687 7.218544601609543 4 5 -7
2867 2 0.02120978829786784 -2.022889865671794 -11.105757150423155 4.6720870355334485 4 5 -7
2794 1 -0.001650662946516335 -5.8561238940607545 -13.53593203840517 2.638352385034728 1 6 -4
2792 1 -0.01109110285681748 -4.94342384934602 -10.820816550493412 6.952990345514204 6 6 -6
2803 2 0.2674237578232899 -3.885518369827745 -14.357532154660122 6.106084607456602 1 6 -4
2802 3 -0.6258240014543656 -3.8705018990212796 -15.114986125161447 5.456741405639072 1 6 -4
3325 1 -0.05779820717948601 -4.885394134062826 -11.00601800600603 8.199395112591517 6 6 -6
2855 2 0.02085093851803195 -6.444885237328284 -12.645727877980796 5.201658629402794 1 6 -4
2800 2 0.0176579547164019 -5.475080989627189 -11.236718731217271 4.310890361410366 1 6 -4
2801 1 0.2827923202707 -4.389837154766806 -14.719367551743769 4.100103590112606 1 6 -4
2793 2 0.02408534920992317 -6.7506780189945195 -12.836632202922257 2.619252087461862 1 6 -4
2214 1 0.02369393274234058 -4.833130139693704 -15.57432791379513 1.7293024579217426 1 6 -4
3330 1 -0.002628902245221547 -5.4056790342794745 -13.336424940047609 7.271673050574965 6 6 -6
2795 1 -0.02025417565639441 -5.248693018696746 -12.263828243715917 6.339262653824935 6 6 -6
2283 1 0.02075747013591383 -5.491837178757949 -14.276030090915771 1.5603303575278062 1 6 -4
2286 2 0.03019234697624342 -0.8990081239681073 -15.181995445946042 0.769837792630455 1 6 -3
2864 1 -0.03207924995300093 -1.0716392366753553 -11.427218949699034 4.052814710718434 4 5 -7
2861 1 0.01977722138767108 -0.1928084136868917 -10.082887181614547 3.3429819941832504 4 5 -7
2996 2 0.02077545785996259 -2.834493572771201 -9.676479749354892 8.093945414341873 3 5 -6
3918 2 0.04396488965445242 -7.435801931540639 -8.423325186345526 8.297826401573856 4 5 -6
3922 2 0.01560840295600374 -6.862158827330242 -10.657148220551507 8.334025010589057 1 6 -4
3912 2 0.02351996220505757 -10.69393193090699 -9.731406194784068 10.312885410681687 1 6 -4
3907 1 0.2346841378572803 -13.870816654737778 -12.184773845517716 10.373640331893142 1 6 -4
3915 1 0.002804685195106545 -10.096257751589382 -10.545039864211212 9.780932637402037 1 6 -4
3855 1 -0.03486729884624406 -12.50184420300946 -12.6571632098056 10.250235134605326 1 6 -4
3857 1 0.009591965814879777 -11.136480833006782 -12.282865344316669 11.120551467319027 1 6 -4
3789 1 -0.005992394850843137 -8.975217840164436 -16.580704600703733 11.699930568709746 5 6 -7
3856 1 0.002019394596262321 -12.364161591688708 -13.347293687054954 9.232096154639585 1 6 -4
3860 1 -0.0568940361908901 -10.004852424771004 -11.809420985691231 10.391842208578938 1 6 -4
197 1 0.2498060950820515 -9.141307854432116 -12.751726960372412 9.889055363403926 1 6 -4
435 1 0.2437819240367541 -15.515866501330207 -8.438646669186065 15.807989425435125 3 5 -7
3904 1 -0.05685250261860182 -14.706336693242918 -12.309749999544447 9.24950750979668 1 6 -4
3901 3 -0.5044657562868549 -14.504199981427421 -11.716218557793773 11.700278712345513 1 6 -4
3916 1 -0.007072206591580943 -8.808611919433508 -9.850692527736385 9.245055672181714 1 6 -4
3858 2 0.06001899679306848 -10.78775480595574 -13.008177188678673 11.877500534051814 1 6 -4
190 2 0.0426441947495491 -11.493953636060423 -11.41924636746939 11.623307438457504 1 6 -4
3786 2 0.0604898728030721 -11.680146120997767 -14.997020162527662 10.379070994339202 5 6 -7
3848 1 -0.02531459176043049 -13.979233750526904 -15.24724365613882 12.567120126372117 4 6 -6
115 1 0.112424070766679 -16.165632951477264 -14.229596603462069 14.836251099747336 4 6 -6
198 3 -0.6120323936624428 -9.511444186475353 -14.25175954459218 9.904029812871968 1 6 -4
3898 3 -0.6357207445222091 -13.047110684839963 -13.089887124198201 14.890588000153121 4 6 -6
199 2 0.2281851349008339 -9.122366546899462 -14.57848690048717 8.971243642657114 1 6 -4
3911 2 0.02033163415911484 -8.802292486332238 -9.73041249736231 14.4876455428661 4 5 -6
3899 1 0.2565311513187082 -15.934848487849735 -11.270444150107389 11.782218270147643 1 6 -4
3847 1 -0.05425875726574232 -13.777876967620736 -15.56375946675958 14.054036260194195 4 6 -6
3903 2 0.06884679564067411 -13.953250530875579 -14.150772727062064 12.70468436448796 4 6 -6
3844 1 0.01595593820466928 -15.486643856157958 -15.47591345759197 12.461177674981899 4 6 -6
3842 2 0.0160193591602218 -15.608473754565392 -15.509455592193993 10.162082865375844 4 6 -6
3979 1 -0.009757343977438462 -16.184449484417243 -11.82729839878165 9.112601652247324 1 6 -4
256 1 0.2410562466178015 -13.255859566867548 -14.7085688387728 15.024686397646693 4 6 -6
3845 1 -0.05399168332900763 -16.104605336226196 -14.489818205608255 13.44875310735066 4 6 -6
3849 2 0.01731745220356601 -13.2919388980157 -15.81587670711962 11.592909850254006 4 6 -6
109 3 -0.3687826043802804 -16.321351158586996 -13.296253379183232 16.38706736488099 4 6 -6
4035 2 0.05527244288003873 -11.753234195954978 -9.585801640498602 13.085761672419832 4 5 -6
4038 1 -0.01564694336289398 -11.052433703132904 -8.730045656228913 13.56257673714225 4 5 -6
377 2 0.02860865832776176 -10.285266617459673 -9.39331721787927 14.060776606830148 4 5 -6
3841 1 -0.02394040034937113 -16.163060985166474 -15.883062787379993 11.174850136519323 4 6 -6
250 2 0.3713478915737669 -13.752822220531781 -12.729341851054494 14.605318723771914 4 6 -6
113 1 0.06114941164756872 -16.68372836213191 -14.853243770117258 15.760452153562415 4 6 -6
3787 2 0.0755178558294074 -9.301137796834729 -16.219594213306753 10.677198797403754 5 6 -7
3853 1 -0.003421283298185388 -11.865989910174328 -16.126379866974766 9.958449699129051 5 6 -7
3897 1 -0.07845745162497475 -16.68834637739185 -10.94033372857951 12.822434140080956 1 6 -4
255 1 -0.04962846631271386 -12.990560851075113 -15.292197825327152 16.141613357247852 4 6 -6
3895 2 0.08175310631846867 -16.139951000440433 -11.254276711318557 13.893828583972956 1 6 -4
3850 2 0.02987454269976756 -10.787133346702356 -16.10914433209865 11.818500032038935 5 6 -7
3917 1 0.01438994092203273 -8.406495816767533 -8.51161959347797 8.858706310124704 4 5 -6
437 3 -0.4498077633788092 -14.010089006714331 -8.801590038055476 15.669581900421969 3 5 -7
3846 2 0.03170967574165603 -16.687456396670967 -13.738556415278838 12.956150766605935 4 6 -6
3982 1 -0.008449400677800709 -10.234562246978578 -8.390764587783018 12.281264171912174 4 5 -6
3381 1 0.007579059938170098 -12.246370380107555 -16.15907468654917 8.604535289625924 5 6 -7
3977 1 -0.04496054569495406 -16.681520808254746 -11.065915299281993 10.458188142802085 1 6 -4
3852 2 0.02795210566634701 -12.19462788313834 -16.695613042850386 12.579455401543358 5 6 -7
200 1 -0.09083107483246766 -8.149463487671786 -12.2750397055799 9.07242771154638 1 6 -4
3920 1 -0.003191396660830965 -7.817220161163537 -10.80557455849144 8.950283272985697 1 6 -4