LAMMPS data file via write_data, version 2 Aug 2023, timestep = 2280000, units = real

2785 atoms
3 atom types

-16.71546325737322 16.71546325737322 xlo xhi
-16.71546325737322 16.71546325737322 ylo yhi
-16.71546325737322 16.71546325737322 zlo zhi

Masses

1 12
2 1.008
3 15.999

Atoms # charge

3852 2 0.05077634836145231 -10.448463223648679 -10.318642897323311 -10.828538302519794 5 6 -6
3854 1 0.01867649927782185 -9.870395696844783 -11.239832547371812 -11.26635778140594 5 6 -6
3317 3 -0.4760886035809774 -12.310993908373426 -13.095130071203004 -11.567449739443317 5 6 -6
3851 1 -0.04759349251230151 -10.398486846190924 -11.904494622548821 -12.655583949907797 5 6 -6
3319 1 0.2200141842205002 -11.484227813251268 -12.521043379829402 -12.835075087871704 5 6 -6
3311 1 -0.03366169955272794 -14.30816424823173 -13.42838320576296 -13.13979252404249 5 6 -6
3316 1 -0.04267896629972773 -11.856807160960773 -12.445806702687229 -14.261973749229787 5 6 -6
3853 1 -0.008416013645316484 -10.046665215851592 -11.314227125848834 -14.091149880765057 5 6 -6
3312 1 -0.01236046504465854 -13.450703754491139 -12.857031372423945 -14.430308807983701 5 6 -6
3308 1 -0.05521907276939482 -14.66753172963749 -13.921085420250991 -10.739157117321447 5 6 -6
3309 1 0.231232108630218 -13.810642954759734 -13.361050163443291 -11.732048320526568 5 6 -6
3318 1 -0.003904071410886223 -11.320944929580683 -11.327915237268456 -14.94167466287284 5 6 -6
3313 2 0.0426427180428587 -13.366032033807926 -13.169721239471457 -15.428974701101541 5 6 -6
3315 2 0.03892721697333394 -14.08629311567609 -11.82471028087096 -14.56401080240597 5 6 -6
3379 2 0.05380328807348388 -11.60394726111689 -10.695384219719324 -15.821593910044795 5 6 -6
3381 1 -0.003604186727656056 -8.746323098680515 -11.02243450441229 -14.709544897814576 5 6 -6
3306 1 0.02591711763276891 -13.684829961710339 -14.735620162630893 -10.012737924731063 5 6 -6
3304 2 0.03356639214378426 -13.28792908152584 -14.235177189363947 -9.113253294368848 5 6 -6
68 1 -0.0004576928255128968 -11.185299684519503 -15.964173698821101 -8.682510456491297 5 6 -6
3841 1 -0.008824004617407809 -10.796007403625701 -14.482341478226513 -8.95639084561094 4 6 -5
3307 1 0.007850421433807923 -16.19455232217634 -13.903415700169493 -10.84481214646201 5 6 -6
2776 1 -0.01858247682726498 -15.744556611745377 -13.390696254455873 -13.181132867181326 5 6 -6
3839 1 -0.01554138626978536 -13.29694096307454 -15.997368514668851 -10.219705981665964 4 6 -5
2777 2 0.04658634214922915 -16.4479755694791 -13.223626265948813 -14.127596517519812 5 6 -6
2719 1 -0.004980265822751184 -8.963217531025458 -15.43551112991012 -15.793583733746233 3 6 -5
3691 1 -0.01035652773329887 -16.571386979254623 -16.566436725454544 -12.683111374435972 3 5 -6
2654 1 -0.001899759606542317 -10.356694671137797 -16.02481845264997 -15.97319752705889 3 6 -5
3788 1 0.003166738030019687 -8.509021790149745 -11.810774135338932 -11.08634230194034 5 6 -6
3850 2 0.042778251987966 -8.69579727924828 -10.973710945630515 -9.08324131828454 5 6 -6
3842 2 0.05009610016131571 -10.206913967754428 -14.507994577578893 -9.898841156271873 4 6 -5
3303 2 0.01860100399368587 -14.138699707840628 -16.317266683495816 -10.87631019349977 5 6 -6
2736 2 0.01857286113042364 -0.6484070854744809 -11.382209546178478 -15.90669753315516 2 6 -1
3320 1 0.01246442331011481 -8.262791005360278 -9.664685984384837 -14.984658566037478 1 6 -3
3321 2 0.01265253481623528 -7.925240960795773 -11.684556292542887 -14.327291712038727 1 6 -3
3787 2 0.01397346184093053 -7.831417407851936 -12.93685714245211 -13.071539706535296 5 6 -6
3253 2 0.02964257490541995 -6.957055995497319 -12.801892749195485 -15.924726810519747 2 6 -1
2720 1 0.0007441236774563785 -8.27282893279985 -16.117872216399512 -14.680355119477706 3 6 -5
3805 1 -0.00577442206413669 -2.464286418728958 -12.16896037542842 -13.402070213331719 6 6 -5
3908 1 -0.009475592153102758 -7.500354283885654 -8.756832608362885 -15.285080532060531 1 6 -3
3256 1 0.01426005763340226 -4.185435293554332 -13.643846534294706 -16.4645246653135 2 6 -1
75 2 0.01195348658768391 -2.1794007319926023 -14.734093313733426 -8.890539322743502 4 5 -6
3789 1 -0.01133945690230141 -7.889783459859804 -12.814860558063986 -11.945083483082806 5 6 -6
3254 1 0.003711607584832424 -5.556925122344066 -14.233860000101048 -16.176685002132505 2 6 -1
3808 1 0.0008076404999048763 -0.17514800820933635 -11.280167936896063 -12.685041764998093 6 6 -5
2670 1 -0.01832780433418949 -1.515597551330732 -13.886706926382228 -15.876710974205855 2 6 -1
3189 1 -0.008524965479754832 -5.890481688740014 -14.83263702480703 -14.955428835955503 2 6 -1
3812 1 -0.005098787606074635 -2.030156776940081 -8.831293175768986 -14.38985902150249 6 6 -5
2669 2 0.0547301845782777 -1.0524790815965717 -14.82058956031266 -16.43842164357874 2 6 -1
2671 2 0.02453273121721 -0.9667846187359127 -13.297265113642148 -15.22816581922071 2 6 -1
3803 2 0.02013272431310275 -4.081777302928714 -10.622577738203402 -13.89918146177573 6 6 -5
129 2 0.01683854663370568 -6.075418109797912 -13.823330240521045 -12.16672712930048 5 6 -6
3791 1 -0.02062872091354851 -8.152450329856023 -11.707378769657643 -9.692525694977085 5 6 -6
3793 1 -0.01987422648767707 -6.639745279879315 -13.247561057772334 -11.424965858762056 5 6 -6
2667 1 0.008686000228703404 -2.9946035409119807 -13.770226842501701 -15.513961802346856 2 6 -1
3726 1 -0.04058847888511929 -1.5399865372277342 -14.064610846173212 -12.410918405145667 0 7 -2
3806 1 0.00258418536815092 -2.3173941658148283 -13.530845312330726 -13.40016927312407 6 6 -5
3794 1 -0.008669101888631389 -6.447730021271625 -13.418182986981195 -10.071664440135534 5 6 -6
3187 2 0.02015282726617774 -1.9317479858542577 -14.988518717996376 -12.171181142080455 2 6 -1
3188 1 -0.02521003943842541 -4.737038723217993 -16.00598312381661 -13.17748025874245 2 6 -1
3810 1 -0.02234260656479031 -0.5331515287952122 -10.108841045176373 -12.755006861430033 6 6 -5
3796 2 0.01733663500050118 -5.374407451778097 -13.548178192737245 -9.541270663095965 5 6 -6
2661 1 0.005488524026956289 -6.011295842713033 -16.554421769597138 -13.40610869204177 3 6 -5
3729 2 0.01702867154842277 -1.5947407426691034 -13.30875465932685 -11.525224661969107 0 7 -2
2665 1 -0.008739104127652636 -3.445470364556753 -14.220133888930027 -14.16731050391177 2 6 -1
3191 1 -0.002346453847811642 -4.731080594922297 -14.814744523050653 -13.96236156478407 2 6 -1
2659 1 -0.00169475229231179 -6.8700299958062585 -15.794097772474295 -14.360657237916481 3 6 -5
3190 2 0.01950891335176525 -3.8958629265202482 -16.24789435054054 -12.630863267529767 2 6 -1
3807 1 -0.01823227875598959 -3.029106110752665 -10.83085758616603 -13.76485372270461 6 6 -5
3795 1 0.01005644376741852 -7.024819861450985 -12.42281636990944 -9.36339476968972 5 6 -6
3809 1 0.004199839131170504 -1.6782543545229451 -10.009360832756649 -13.815216109782073 6 6 -5
189 1 -0.002755788486939734 -8.684066432825507 -14.420240391984711 -3.7213803579996347 5 6 -6
1295 1 0.04163122506081717 -9.869261093563455 -14.500133828121408 -0.9296696772405413 2 6 -2
184 1 0.004137165494546628 -8.789102203350307 -12.417864014003104 -5.158855585733111 4 6 -5
1749 2 0.02526288304147896 -9.349733760663565 -13.637631883620905 -1.1422058721912454 2 6 -2
1812 1 -0.09673047226049684 -9.982198938446036 -15.568559312180506 -1.7513376796527877 2 6 -2
185 1 -4.654183954028862e-06 -9.451747187589286 -15.597442501095916 -3.195758712190708 5 6 -6
186 2 0.02393341296660353 -10.319997819400783 -13.726619550326788 -6.366989558713405 4 6 -5
183 1 -0.02619254804476185 -9.91387988043384 -12.820698143132068 -6.121884769186949 4 6 -5
3193 2 0.02035576911167667 -8.364382941731998 -15.051117471894296 -8.20917991150354 4 5 -6
3845 1 -0.0426015224872836 -16.35924866779624 -14.70630334645521 -4.872654018913878 4 6 -5
3846 2 0.02412092842870669 -16.5311794145654 -14.570766902186296 -3.831606949995068 4 6 -5
3849 2 0.06912408877304425 -12.71389822301177 -12.019308654627686 -7.700161621730112 4 6 -5
3847 1 -0.02574751791003337 -10.93486612611168 -12.09452996103449 -6.6219361445826115 4 6 -5
256 1 0.2936782627937627 -10.375188785239521 -10.675324492870477 -6.94354997353302 4 6 -5
3848 1 -0.01519189675855598 -12.008876016992522 -12.764889685220647 -7.353765962421707 4 6 -5
3898 3 -0.4261754574449681 -10.981807751997609 -9.881909206536868 -7.808428032281605 4 6 -5
124 1 -0.01303902546253814 -11.459225789881085 -16.18541502009219 -7.318033081157128 5 6 -6
72 1 -0.02142875489462963 -11.543117802832796 -16.551077429824932 -6.033345168778055 5 6 -6
255 1 -0.04955301380190875 -9.08773029770409 -10.34432975042015 -6.184985838106463 4 6 -5
1079 1 -0.0277919815285701 -16.322132725747366 -11.776050546441729 -1.647282898495065 4 6 -5
1614 2 0.03302489413744341 -15.103576744079273 -11.077441139226574 -3.306424269283181 4 6 -5
1613 1 -0.01088070036266257 -16.009166727902826 -10.721787466862288 -2.625795579924244 4 6 -5
3844 1 0.03552250466419507 -11.388093403417274 -13.459658505663514 -8.26463269899584 4 6 -5
1676 1 0.007184021030375159 -16.684313366181783 -9.570801039803092 -2.752973071315721 4 6 -5
3903 2 0.0160998501776102 -15.38974218608396 -14.267404233248957 -5.21839645196258 4 6 -5
258 1 -0.01400755716743685 -8.368188795437268 -11.104487628003225 -5.280332033276392 4 6 -5
623 2 0.0249029401592805 -15.518024868429968 -12.282295156272129 -1.2129620024058054 5 6 -6
1219 1 -0.002745619949848108 -16.626807169277217 -8.621306353447483 -3.7676572719465384 2 6 -3
1811 1 0.283791849817631 -10.47177807296577 -16.684784025841818 -1.6055773100456685 2 6 -2
73 2 0.01421172914975167 -12.593285009876192 -16.105812010850435 -5.749753299096577 5 6 -6
1165 1 0.0003861477952245632 -3.793905974520797 -15.050509500207053 -0.6755567514272923 2 6 -3
1622 1 0.01410897148040762 -7.203552061341218 -9.201906617948094 -0.4578681648192146 2 6 -2
1087 2 0.02135446600494793 -5.6161848954112035 -12.769564230450367 -1.6408603544510623 2 6 -2
188 1 -0.0239682310782165 -8.007937758185133 -13.56449642006225 -4.355673452713668 5 6 -6
1683 2 0.0106258941558541 -5.977393478623502 -10.660429757525169 -1.6357105097256923 2 6 -2
74 2 0.03463488422065544 -0.9998650785838324 -16.086820953972573 -7.942918961395767 4 5 -6
3717 1 0.005057469060896968 -6.2899438604808475 -14.13539501142422 -7.6314946446883924 4 5 -6
3715 1 -0.01404453552932984 -7.322869281893381 -14.944886397236038 -8.032009074729913 4 5 -6
3797 2 0.02074353741987625 -5.328899554929131 -12.218420159494968 -7.769115385089146 5 6 -6
208 2 0.01797836475831067 -4.894696681620966 -8.971189345256462 -6.241050850662587 2 6 -3
695 1 0.1893715033754391 -1.7204105153515332 -11.007012027294834 -3.2857146548562253 2 6 -3
699 1 -0.01921612341248657 -2.8931093307476785 -9.020648917252748 -3.6673807754888763 2 6 -3
3723 1 0.00148946226075003 -1.0448791518156197 -14.253952394520525 -6.355812221296715 4 5 -6
3721 1 -0.003015508486286223 -4.5688444193294036 -15.961673334272723 -8.041793955772391 4 5 -6
1242 2 0.07332169626077727 -0.4864338593584781 -13.736046623799794 -2.6278545890880833 2 6 -3
79 1 -0.002251008493570746 -3.8333159210696586 -14.247999165378877 -6.454837496703599 4 5 -6
693 1 -0.03398873833744323 -2.6268521760973957 -11.832614604937053 -4.076266770246891 2 6 -3
77 1 0.001095007473563753 -2.341793524162296 -14.68882617114451 -6.656582770219976 4 5 -6
3727 1 -0.0263444193603108 -1.0761256883392996 -13.473145397463679 -5.102501913367504 4 5 -6
1241 1 0.007992493504500899 -1.259080875084582 -14.121167484067046 -1.9831355050508925 2 6 -3
80 2 0.24942535434916 -0.6292476089638959 -16.488929635445672 -5.003534556388997 2 5 -4
633 1 0.006638209213001539 -2.526219096251985 -13.94950590304816 -2.8739174538975196 2 6 -3
1086 2 0.02245587707995008 -7.509502394953148 -10.125087130013862 -2.3499063620811977 2 6 -2
252 1 0.01938628205197402 -8.321283168045767 -8.987215857104424 -6.530607410242017 4 6 -5
631 2 0.01924909386129571 -4.392590254832702 -14.000869198935353 -2.384734587645184 2 6 -3
76 1 -0.02910306956187603 -1.9571612718123084 -15.484440904029134 -7.843910792441263 4 5 -6
3716 1 -0.02084009025862936 -7.039468899179329 -16.360474758547053 -8.273417580019238 4 5 -6
632 1 -0.01444273831862223 -3.5160724358757864 -14.183418716324534 -1.7798013697380406 2 6 -3
1162 1 -0.002941279288621406 -6.2084082727379455 -14.223203991088901 -0.2414699726402383 2 6 -2
697 1 -0.02286215261700265 -4.120707702691134 -8.609036412767487 -5.688645719482269 2 6 -3
15 2 0.02359639040387833 -3.051553711075364 -16.24625752664298 -5.184708961373922 2 5 -4
1250 1 -0.001169763545749221 -0.8202873230848535 -8.88420595391865 -2.1291996560603677 2 6 -3
259 2 0.0116281317351627 -7.566400134635467 -10.763701420696648 -4.546193829153086 4 6 -5
3718 1 -0.008192500464655417 -4.944458074896076 -14.60629523793564 -7.635288989800841 4 5 -6
1158 1 -0.01136000880383846 -7.1009891069367805 -10.455463874472702 -1.343886298060063 2 6 -2
187 2 0.0160956685056652 -6.929238245545712 -13.243357291719706 -4.095647740240471 5 6 -6
690 1 0.01825300685092216 -2.34427591187586 -13.283273980402319 -4.148495955998629 2 6 -3
696 1 -0.002897689463857409 -3.626030554328497 -9.548220918843594 -4.715158366609035 2 6 -3
698 1 -0.02830718801740804 -1.8379644791616079 -9.748831153084133 -3.0181873662425636 2 6 -3
1245 3 -0.5328217675270647 -0.6270754307072163 -11.73618006359388 -2.2032556086805224 2 6 -3
83 1 -0.01170556397367841 -4.414442466573313 -11.77322504974541 -5.5892143765231035 4 5 -6
82 1 -0.0003365029230349148 -4.1407791922609505 -13.020695856719767 -5.937720499690301 4 5 -6
692 2 0.05627980738155537 -0.5236624642641747 -12.672451996803986 -4.304009200088671 2 6 -3
694 1 0.002008232266718962 -3.7598849968716945 -11.201497519239465 -4.582923387616869 2 6 -3
3801 2 0.01833658134724274 -7.040908859012773 -11.739070091262242 -7.242217590197626 5 6 -6
3798 1 -0.03972066666807589 -6.339773205763672 -12.476911095117758 -7.949375346696846 5 6 -6
1248 1 -0.0525651019421765 -0.514815834332246 -9.734460222138841 -0.8573389095366132 2 6 -3
1169 1 0.01166671031340256 -1.5261067812052194 -14.137062923428056 -0.5206180399651201 2 6 -3
1247 1 0.277595194850996 -0.5206095041239123 -11.123718014742916 -0.9143318812056249 2 6 -3
1161 1 -0.03323430999600188 -6.417918030591466 -12.937191289188233 -0.940101963003439 2 6 -2
1232 1 -0.0404317302854376 -7.42352169633248 -11.865799868074816 -0.8110922817297022 2 6 -2
1163 1 -0.02957484760030948 -5.194084132657481 -15.212934206776136 -0.2913274551599016 2 6 -3
629 2 0.01388247284910408 -5.793192789714043 -16.035879976921343 -0.4425631353816957 2 6 -3
2317 1 0.02019352555721466 -13.355575204732592 -9.26833647431123 6.669202104216876 2 6 -2
2250 1 0.0166177546629744 -13.856774677933418 -13.329147252556526 6.699117511820868 2 6 -2
2258 1 0.03898743191496791 -14.065580632025467 -14.026509780428093 5.438678938885687 2 6 -2
2256 1 -0.02136940095038348 -15.45522961493168 -14.759054973165416 5.301447329438678 2 6 -2
2253 1 0.003419507774132552 -14.736546604039962 -13.753065902473416 7.668938287160575 2 6 -2
1221 3 -0.4239074499692728 -11.17251294276735 -14.96487464414689 4.544104722290254 2 6 -2
1742 1 0.0006182081980738892 -15.489533873210746 -14.972767863916218 6.946779150314978 2 6 -2
1745 1 0.264231504187794 -12.158668878416917 -15.79187805853554 4.190558156298291 2 6 -2
1746 1 -0.0120808968490315 -13.498277394130199 -15.182900835292811 4.70184986981723 2 6 -2
1744 1 -0.005854689227918913 -14.669375024629893 -15.787186577265025 4.477113194125404 2 6 -2
1229 2 0.05428431832476896 -9.521877209048096 -15.249268302446703 2.66852248897339 2 6 -2
2130 1 0.05293333187450781 -15.88758985610318 -16.05316802534178 7.640853134584534 2 6 -3
1223 1 0.2197339985207842 -10.633054911721699 -16.16506447480426 0.6370747740030956 2 6 -2
2319 1 0.01191221903825609 -13.24734897463843 -10.63687779899521 6.972661566596973 2 6 -2
2316 1 0.01260022700627381 -13.262383986710523 -11.946560799888646 7.378786701013823 2 6 -2
1228 1 0.0104316311583159 -9.385000376764909 -14.299131157187254 1.6137586646078113 2 6 -2
2254 2 0.04573830461641133 -16.377990794379294 -14.731410140871189 4.919202846518539 2 6 -2
1808 1 -0.004167388031493392 -11.203492412541971 -16.220143016719632 1.8451241249232364 2 6 -2
1225 2 0.08373222074950389 -10.28132278046823 -13.778413909819193 1.7067466276817103 2 6 -2
1227 1 -0.06976744569070908 -9.944256244784297 -15.013033490324492 0.46786397806521973 2 6 -2
1226 3 -0.4435434768373286 -9.203646012404368 -11.656599705863362 0.9774985414054665 2 6 -2
1806 1 -0.02269088562239711 -11.978979906104982 -16.676751100698606 2.8956230904302194 2 6 -2
1147 2 0.02553604235901113 -16.635196847245922 -12.467261365292782 0.8294745441116569 4 6 -5
2264 2 0.05208036265592707 -8.935369771900769 -14.846150521799823 7.886356518297145 2 6 -3
2220 2 0.02561703291164368 -0.08406274515528256 -8.494435822883585 7.733947098441302 1 6 -3
2267 2 0.01066473282973182 -7.228446746295273 -15.257389370370076 8.071475916452972 2 6 -3
2778 2 0.03948017835129174 -7.6008517989187965 -16.61855685345986 6.205334811544095 2 6 -3
1701 1 0.2934879481972961 -3.6805187826646266 -11.845637090863496 4.4959285794237935 1 6 -4
1171 1 -0.000859164182067905 -1.4914982012028193 -13.13895392053579 0.5000658883123952 2 6 -3
1230 1 0.3078824048509301 -8.265337314795042 -12.309131807016744 0.4661716883481283 2 6 -2
1700 2 0.0488807272520919 -3.241835115524613 -9.133837050762843 3.1859585185586767 1 6 -4
1251 1 -0.01130079673905189 -0.3932543624441507 -9.084660187437967 0.503982316419106 2 6 -3
1231 1 -0.04149765228908319 -8.240406715959795 -13.753111190713765 0.824838755399397 2 6 -2
1684 1 -0.01076291155540308 -7.11228202590822 -9.098292222702524 0.9623507398006568 2 6 -2
1711 2 0.0225389713040574 -0.4385983531104055 -13.65941564885567 3.0513618565069156 1 6 -3
1177 2 0.04339556166234584 -0.2776223704304807 -11.753380311017464 2.4588853714605636 2 6 -3
2287 1 -0.09515164059821155 -0.5036099242927697 -11.343857349203263 7.452690923536029 1 6 -3
1111 1 -0.02876812369905362 -1.7160555008328464 -16.082621472179525 1.087519068072366 3 5 -6
1647 2 0.03798712911481633 -0.7913150325123639 -15.95881754855042 1.7766425419676393 3 5 -6
1175 1 -0.03864574750407367 -0.6324813996811288 -11.90294919397614 0.3870052412260893 2 6 -3
1710 1 -0.002026674194558029 -0.4854317720232335 -13.832034547793832 4.102804769759091 1 6 -3
2286 2 0.03610367139587096 -1.261033993359872 -11.234179586461098 8.219505544089026 1 6 -3
1160 2 0.0216033966447992 -7.406689964306271 -15.703405957401682 0.9621854281845047 2 6 -2
1703 1 -0.05853810187557443 -4.031936216612223 -13.252354415427902 4.205970819820062 1 6 -4
1178 1 -0.010837289226077 -0.15447098154837158 -11.21620901557446 1.4895090531737827 2 6 -3
2838 2 0.01480161875339242 -4.890546921453113 -8.750043674058652 7.952938649836406 2 6 -2
1773 1 -0.008197477215023754 -0.30890556922725015 -13.604087134225647 6.356671724862281 1 6 -3
1707 1 -0.006352063401538748 -1.6313275426615241 -13.828439418431 6.024796576657587 1 6 -3
1635 1 -0.01063946416088347 -5.353056773843546 -13.531757463050564 4.068316317459987 1 6 -4
2218 2 0.06180935780779834 -0.9040241150486404 -11.294842255005088 6.366457798092103 1 6 -3
1640 2 0.02926451439654107 -3.478629021391896 -15.321941698169592 4.215884337081915 1 6 -4
1747 2 0.04241261554663362 -6.986894234123327 -10.186854182623765 1.634831837461456 2 6 -2
1636 2 0.02360120511533787 -5.651134528906256 -14.535481222130324 3.7686786031031363 1 6 -4
1159 1 -0.01799604104591838 -7.371299726393521 -14.70020201512292 0.5310910958143364 2 6 -2
1708 1 0.03449244377893032 -1.7237852321557887 -14.044455284590313 4.64176115200678 1 6 -3
1706 2 0.02114018145433562 -3.268792901672799 -14.514264252941217 2.571965334612131 1 6 -4
1699 1 -0.06033431280635195 -4.9492535243886575 -11.343377001330827 5.008884673514568 1 6 -4
1698 1 -0.003776179711244922 -6.376393253508042 -11.731924024606787 4.949196775211435 1 6 -4
2151 1 -0.02045798904501551 -6.555638753287948 -12.909417869828765 4.210715046288162 1 6 -4
1695 2 0.0209813159412903 -5.616862037622419 -9.629409195078352 4.616773772907379 1 6 -4
2219 2 0.01774039952277247 -2.4356241593498527 -13.623571615503854 6.791328442981889 1 6 -3
1705 1 -0.01852344949854113 -3.0979386376522746 -14.400482839864402 3.7105570548035356 1 6 -4
1696 1 0.05398119457934579 -3.4866297407326314 -9.047800516564138 5.274326621332073 1 6 -4
1694 1 -0.02376095199699912 -4.856706767803502 -9.74180363201101 5.346652612301395 1 6 -4
2210 2 0.02922168080847663 -7.399507007710272 -11.364686902644417 5.136389393667421 1 6 -4
1693 2 0.01523170210164857 -5.074531663157497 -9.214430866604305 6.325229068770766 1 6 -4
1702 3 -0.4808265461198218 -2.4888255906444 -11.215485721769543 4.379840038074058 1 6 -4
1168 1 -0.01829717369102631 -2.4974269592196885 -15.030983278173302 0.2612188091706382 2 6 -3
1763 1 -0.005828334990720566 -2.941770529064798 -8.50742793116984 4.07261989674339 1 6 -4
1110 2 0.01642215778477464 -2.4089517364950925 -14.453598617702601 1.1753509062544287 3 5 -6
1243 2 0.0234476387301305 -1.8021980654639118 -13.154406127706242 1.561671938556667 2 6 -3
2150 2 0.04386288377049157 -7.606491860719312 -13.344126112126162 3.987752259909477 1 6 -4
1748 2 0.02403881099724978 -6.51876501618051 -8.387469269305537 3.3318287671147306 2 6 -2
2774 1 0.1957396393946176 -10.701026878204646 -12.674038077563104 13.705182842694446 2 6 -3
2772 1 0.156451843724956 -10.748373780724316 -11.670415981655688 12.710984027211005 2 6 -3
2770 1 -0.03572537853596452 -11.478314716027649 -11.690934310004167 11.47954831420943 2 6 -3
2826 1 0.009575146152764259 -11.804332143198309 -13.047184681448575 11.005545631170113 2 6 -3
2829 1 -0.05019657900449745 -10.946930886648863 -13.93539898961195 13.001376066746188 2 6 -3
1800 1 -0.003496340381837604 -12.381502446638985 -10.828698677222743 11.020142128357572 2 6 -2
2248 1 0.0008972598597196506 -14.645403628948447 -13.88085951981578 11.242441445995931 2 6 -2
2706 1 -0.01195432597455309 -14.039356477803981 -15.05119742046557 11.403491386373453 2 6 -3
2247 1 -0.01765755075004008 -14.419009625648924 -12.709038862346944 10.342478353052549 2 6 -2
2827 1 0.004478221151157686 -11.939026335350498 -14.1421432705897 11.904461183169401 2 6 -3
2701 1 -0.005245960197885247 -15.98183242512261 -13.616928144889048 11.884904631922144 2 6 -3
2245 2 0.0268370971391491 -14.772708523193769 -11.772956985762859 10.567577813821837 2 6 -2
2702 1 -0.008780339020231464 -15.021174498506612 -16.046411741397407 12.121057452836231 2 6 -3
2246 1 -0.0213695512055098 -13.086395154769725 -13.229025648656041 10.011984803987772 2 6 -2
2649 1 0.01525711097192377 -12.633758388215632 -15.442898811785096 11.593203537196835 2 6 -3
3426 3 -0.5900281216202394 -15.496410502554538 -8.701156086821443 9.935134731246993 4 4 -6
2243 2 0.04695384139087729 -12.781222743493291 -14.19418912211751 9.733466156617231 2 6 -2
2831 1 0.01466195199695055 -10.048278797856106 -15.052285406276539 13.552684401191858 2 6 -3
2833 1 -0.06357321006380949 -8.97083755364941 -15.064185457339564 12.270344002687024 2 6 -3
2769 3 -0.3707485545305954 -10.495062217661506 -11.24594221147969 14.201277471850378 2 6 -3
2322 2 0.03596787328164825 -12.408657896616617 -9.877303414376092 11.306630661659698 2 6 -2
2260 2 0.07251027446422517 -9.775498218322166 -16.155010155321783 10.82786147500882 2 6 -3
2262 1 -0.01424367564071033 -8.915625270287228 -15.55711676446451 10.949290348342974 2 6 -3
2326 2 0.03554117377639367 -9.46780263784241 -15.345692492215791 14.66765178841227 2 6 -3
2249 1 0.01072276579244174 -16.32349268403268 -13.400503143708258 9.300755319255636 2 6 -2
2832 2 0.01519032602328944 -10.48004564360832 -15.956505184758878 13.099768221372202 2 6 -3
1799 1 -0.001752959941225332 -12.645580657226603 -11.045024787341347 9.618882980831682 2 6 -2
2651 2 0.01929886565187194 -10.805597662582246 -15.450540251381655 15.55671003571344 3 6 -6
3429 2 0.2592083587629018 -15.24035228701693 -9.430551977009388 10.58049533500517 4 4 -6
2251 1 -0.00434550768364492 -15.027249673157444 -13.4026076750135 9.0825138610258 2 6 -2
2705 1 0.0385374475726721 -15.955888349592218 -14.004087109226354 13.367192793133086 2 6 -3
2707 3 -0.4527776604282447 -16.51870885402083 -11.292028458382532 15.046121304486595 2 6 -3
2314 1 0.004444361886098222 -13.040490695187232 -12.105259594195852 8.846811827686851 2 6 -2
4026 2 0.03502513752688888 -12.315703378117039 -8.96862537184045 8.673354691040105 4 4 -6
2653 1 -0.01892365065437103 -11.32634082338593 -16.144079844373184 16.246673256003067 3 6 -6
3113 2 0.02107106466886286 -12.482983081450335 -16.511475339958157 14.715329223438248 3 6 -6
2655 1 -0.01335576774471033 -12.512975085792364 -16.705206564011323 15.803640743212371 3 6 -6
2265 1 0.01246861045656223 -8.1255849632063 -15.003085391418534 9.877776061174877 2 6 -3
2837 1 -0.04252507975738484 -6.809871278384245 -14.102128109035302 11.522387894792919 2 6 -3
2727 2 0.2716941622275372 -2.9014493902685494 -14.527475000866811 14.081695863650337 2 6 -2
2780 1 0.0152059292424532 -5.7709561452766955 -13.206714633749291 11.65897471240911 2 6 -2
3258 2 0.02381294857373621 -3.6260626097519815 -12.084336548701529 15.683579639940936 2 6 -2
2786 1 -0.007825074903522876 -2.653688161102233 -12.00776167610858 12.514457740888899 2 6 -2
3250 2 0.07892027346064215 -7.528444896788772 -13.802571558048415 16.039875834674028 2 6 -2
2725 1 0.2135782970535037 -6.233136863113001 -12.956953884457386 14.073767585343756 2 6 -2
3342 2 0.01673492548153755 -0.03467506284127039 -9.737544954498476 12.829370009058986 4 5 -7
2724 2 0.008339639714922194 -5.998007481684837 -14.588383107320205 9.268491478437046 2 6 -3
2782 1 -0.03993183301184905 -5.287694952491623 -12.71732340454809 13.093379788025107 2 6 -2
2783 1 -0.01194310436864779 -3.8231357248644744 -12.676456823156292 13.128444064943414 2 6 -2
2866 2 0.0252950736013605 -4.947262676657461 -8.710558772180732 10.486817174412566 4 5 -7
2779 1 -0.02508330863337232 -6.7434097939377216 -14.792215552638835 10.091238620120242 2 6 -3
2731 1 -0.04181380087392454 -0.8642110809209851 -12.601042543129498 14.029571868136994 2 6 -2
2728 3 -0.6066693373287054 -2.1731547070397097 -14.826273710360306 14.616358748796479 2 6 -2
2734 1 -0.01006582965381238 -0.39215914829430626 -11.815708123089426 16.4841187302009 2 6 -2
2789 1 -0.02985591052594725 -1.3329786030081365 -12.754256744542301 12.454513929218082 2 6 -2
2781 2 0.01054628290515799 -4.897968139421799 -12.955273034920296 11.083181864257268 2 6 -2
2835 1 0.2684407380408215 -7.94023791785736 -14.272655407833106 12.54924270927331 2 6 -3
2834 3 -0.4890184287948157 -7.761845967762667 -13.542091640315585 13.780391750895403 2 6 -3
3252 1 -0.00564585466770124 -5.858381374494836 -12.799027121463311 15.408785843528118 2 6 -2
2726 1 -0.01123664109672103 -4.521145393050363 -12.69578225058128 15.839248881469102 2 6 -2
3251 1 -0.02596439995402828 -6.715067261368964 -13.461117004907939 16.591632656094372 2 6 -2
2788 2 0.04355044349643741 -1.8371624690836308 -13.743320215165868 12.411363533124586 2 6 -2
2799 1 -0.01937962088356179 -4.013120367588437 -8.653781038854422 8.635485714890972 1 6 -4
2730 1 0.2287633684997249 -1.5470529111337836 -13.44279450174034 14.962934941251842 2 6 -2
2800 2 0.02008394814712596 -3.0639070717010832 -8.450572476513628 12.914114730043273 1 6 -4
2790 2 0.03620673793081746 -0.863850633018339 -12.816448895133085 11.580687099972002 2 6 -2
2732 1 -0.05180474236464327 -1.163566685140696 -12.91972432182085 16.158491235037836 2 6 -2
2266 1 -0.008646319249905981 -8.282404391934046 -15.575530937973422 8.394650536104736 2 6 -3
301 1 0.002320051543952505 -13.334460591634302 -1.948712363238793 -12.882118261006456 3 5 -6
3971 1 0.002287711099565076 -12.109527843293655 -4.103837265201693 -11.981970298689006 1 6 -3
302 1 -0.002658501245927498 -13.065295124088605 -3.145259336239761 -11.737650694530817 3 5 -6
364 1 -0.004705073713393005 -14.128279580695098 -0.8108414184589761 -12.990488044020337 3 5 -6
3974 1 -0.0008300040939478517 -11.866809341576685 -5.670259039854943 -11.66674069218955 1 6 -3
3897 1 -0.02494459151157082 -10.722708818600482 -3.7065890473612955 -12.52845598392807 1 6 -3
3899 1 0.1842162501736351 -9.768309582291257 -4.274650718619765 -13.41535793235454 1 6 -3
3901 3 -0.4753433828625704 -8.54975739604674 -3.7305004738868863 -14.533590312338388 1 6 -3
304 1 -0.008940089968612848 -14.426017161849353 -2.923084077877644 -10.861507551112952 3 5 -6
3975 1 -0.01516453744126237 -10.87361000939363 -6.053077009454751 -12.440682736646316 1 6 -3
3977 1 -0.01111494191449786 -9.688546068054501 -5.849724256960329 -13.185119831824702 1 6 -3
3972 1 -0.04452117067808146 -12.320615791720105 -6.763347519279263 -10.643683890875039 3 5 -6
4080 2 0.02255761813217561 -16.454663241713263 -0.2961835562871313 -14.161557001524391 4 5 -6
3979 1 -0.009030965741684872 -8.519280495727704 -6.8686810095602535 -13.415679565005991 1 6 -3
366 1 0.003058140068622685 -15.0650196290236 -0.7185753696902806 -11.9612866953191 3 5 -6
3973 2 0.02867208379720944 -13.42061276903236 -7.002257293903387 -10.748420777841185 3 5 -6
4035 2 0.03608411192858629 -9.318673811695229 -1.1400355085647014 -15.301292776701509 4 5 -5
737 2 0.04679278318356776 -11.99551380812492 -6.665660896503137 -9.546960412505959 4 5 -6
368 1 -0.002059470999264137 -15.422385495859636 -2.0767133424525936 -11.203684284825805 3 5 -6
3980 2 0.01168660669720029 -9.631210753323785 -7.659237048641503 -13.344486019961042 1 6 -3
3970 2 0.03044022827620621 -11.841749952365378 -7.807420286692982 -11.240553724311756 3 5 -6
4086 2 0.02350640889003409 -11.981086657093364 -0.06523626502673988 -14.47821961815801 3 5 -5
738 1 -0.02660832124472997 -10.62876802129308 -4.089351487272674 -8.4051810875823 4 5 -6
443 2 0.02489472161989834 -11.628908361813039 -1.1453565819564926 -10.776789590141192 4 5 -5
498 1 -0.02198522868078006 -12.59631402833236 -1.0751293652188605 -8.819186319468402 3 5 -6
497 2 0.01964440909972424 -15.931530807763428 -1.9516436629197713 -8.596897776031627 3 5 -6
4038 1 -0.01730205713455676 -8.36260083999546 -1.1498024578017116 -14.607650248091582 4 5 -5