LAMMPS data file via write_data, version 2 Aug 2023, timestep = 580000, units = real

3765 atoms
3 atom types

-16.71546325737322 16.71546325737322 xlo xhi
-16.71546325737322 16.71546325737322 ylo yhi
-16.71546325737322 16.71546325737322 zlo zhi

Masses

1 12
2 1.008
3 15.999

Atoms # charge

1427 2 0.259426468133947 -12.888435844032466 -12.094896211576755 -10.161011895126201 4 4 -6
948 2 0.06680079049310277 -14.577392029551051 -9.493501407529825 -12.503419921559557 5 5 -5
880 2 0.300604326567125 -14.979328158902435 -12.228872097499456 -13.862602582118729 2 4 -5
1426 3 -0.5558695242038879 -12.506689786062097 -11.380694709594486 -9.681763916259765 4 4 -6
882 3 -0.6493000380949372 -14.271008015298415 -11.844911586799213 -14.298071089016766 2 4 -5
886 1 -0.02813683788502271 -11.81233297603551 -12.535409993150648 -14.095342979045954 2 4 -5
1425 2 0.01728598713158129 -15.252905435062683 -12.353753090501502 -10.647750059130965 5 5 -5
883 1 0.2481038786272278 -13.170775559827819 -12.663803884315822 -13.671175264152197 2 4 -5
890 2 0.02324869556901108 -9.687452073961152 -12.970117278333495 -13.19278983374957 2 4 -5
1431 1 0.0009916849868401197 -10.74912704180573 -13.069403481778007 -13.282984301289238 2 4 -5
1428 1 -0.05614840596861721 -13.460898762309196 -13.689582255407487 -12.729925761561457 2 4 -5
1434 2 0.03842211937943753 -10.06312814650825 -13.091388814062428 -10.655255857479492 2 4 -5
1430 1 0.006152238883359019 -11.065126171143714 -13.801682711531726 -12.167487575950862 2 4 -5
1365 1 -0.0317998567125945 -14.86603491603612 -14.43130347185166 -12.666954308745485 2 4 -5
1370 1 -0.008320491009020489 -12.40750906967502 -14.163934606605457 -11.95229385975526 2 4 -5
1377 2 0.01807418481735861 -8.943609928341901 -14.186589642468913 -11.793287303954113 2 4 -5
1376 1 -0.02114133086411736 -9.930549302655042 -14.064026298065682 -11.188146350452683 2 4 -5
1485 1 -0.01950568456368339 -16.01293719155869 -12.348300745040369 -11.459191927866419 5 5 -5
891 3 -0.6244216911722131 -9.88376697148938 -14.439173432922216 -16.32998410041573 2 4 -5
1364 2 0.02566390530847649 -15.0781620417223 -14.938407997802171 -13.641435278092228 2 4 -5
884 2 0.04583201733013198 -11.894095316910038 -12.512849971647618 -16.370134285444944 2 4 -5
1366 2 0.01084818400158772 -14.711600849924574 -14.914436127126667 -11.690742674665369 2 4 -5
1369 2 0.02508259166662851 -12.416250473649171 -14.883433320522904 -11.134180434576676 2 4 -5
881 2 0.03412833168162865 -13.025324516472047 -9.241684813178656 -15.8067307313363 4 5 -5
1374 1 -0.05405747084807366 -10.267045997414815 -15.330804561943989 -10.28896749604628 2 4 -5
887 1 0.002792608273717394 -11.448976382733377 -11.97042511018249 -15.519633718376353 2 4 -5
960 2 0.01942157200708773 -9.96596041027236 -9.827784461974 -14.78890592976444 2 4 -5
888 1 -0.06057136050453278 -9.92922060750658 -11.893510573515684 -15.676634991059675 2 4 -5
962 1 -0.007557248666625261 -9.432724477181708 -10.642371022820175 -15.119841406712544 2 4 -5
885 2 0.03712109551242006 -11.990788891438248 -10.969887918954143 -15.384040199190894 2 4 -5
1432 1 -0.02491329825634208 -10.16856521711778 -10.316825603356769 -11.36924614591562 4 4 -6
1486 1 -0.02439058340000119 -16.0130811062494 -13.287744648753902 -12.439478734388027 5 5 -5
1429 2 0.06300314550616533 -10.920668094702766 -10.62080761895588 -12.105327341090769 4 4 -6
878 2 0.04735995556917019 -15.251343977631835 -14.433529160789083 -15.873918706265854 4 5 -5
892 1 0.273192327449763 -9.279477245930938 -13.075458124160088 -16.089995878689578 2 4 -5
1962 2 0.003085424166996335 -14.379432136320267 -13.667342506273037 -9.616867726243678 4 4 -6
1435 1 0.01535925123434748 -8.842305443174773 -10.689274335503427 -11.564046541483505 4 4 -6
1373 1 0.001484571791622782 -10.452730738290738 -16.520635656314116 -11.106728702898065 2 4 -5
1372 2 0.05059728738549095 -10.199894059385484 -16.57468570757696 -12.165644936450109 2 4 -5
1487 2 0.007631878775156494 -15.728539496610574 -14.917367921848461 -9.686138630413986 4 4 -6
1954 1 -0.02414743264580045 -15.612692729556738 -15.53683029821899 -8.79772230276411 4 4 -6
1553 1 0.002472362375391508 -15.185205041579941 -8.594211286229699 -12.236300427099243 5 5 -5
1549 1 0.02733260160586901 -16.190542946483042 -8.743564025489333 -11.38288843097996 5 5 -5
950 1 -0.01629096657565396 -13.638073221207172 -8.476430053176529 -16.191656776226996 4 5 -5
1484 2 0.01881690206107548 -15.976634804267318 -10.501008400416643 -9.839429197101575 5 5 -5
1499 1 -0.07846243874115616 -9.415263290700896 -9.016319975213824 -9.315474014186863 4 4 -6
1497 1 0.2699864136875696 -10.42256897630753 -9.450541904244735 -10.207733529150763 4 4 -6
1498 2 0.01910520305771216 -9.845433093508282 -8.478192152189907 -8.442202081318442 4 4 -6
1433 2 0.0418424603156861 -8.598182003928763 -11.467297629130734 -12.322190643435043 4 4 -6
814 2 0.0504231897067642 -13.821711604134679 -13.509722322383592 -16.34846894016405 4 5 -5
1368 2 0.2799090497915197 -13.306970863681443 -16.61210022040316 -12.884736918911972 2 7 -3
889 2 0.3034296118169929 -9.242522915150095 -15.122989640654552 -16.421649370918967 2 4 -5
1417 2 0.005461076367981801 -15.700965214850392 -16.237327318270292 -11.807345830239365 2 7 -3
1375 1 0.2289950834367134 -10.391255716852209 -15.343570171336886 -8.847723427483967 2 4 -5
1496 3 -0.559881615375984 -11.828018274995593 -8.988015749908973 -9.889072396087 4 4 -6
1951 1 -0.048274364551097 -16.375760792479948 -16.66935157680626 -8.476626853943682 4 4 -6
875 2 0.3383206044605077 -16.303901969523494 -16.273149361762172 -16.64286087818488 4 5 -5
1494 2 0.2673303298031967 -11.642318175333362 -8.69179101664968 -9.034730012195368 4 4 -6
1960 1 -0.01766131225442863 -13.831117127761196 -13.879066906827187 -8.598992073951274 4 4 -6
1964 2 0.03064258489339078 -12.766795417770282 -14.070959658387972 -8.948195154490708 4 4 -6
1956 1 0.2288385183880586 -13.530714942812285 -11.334839366171797 -8.50193561596301 4 4 -6
2018 2 0.0766189466863107 -13.862415172379029 -9.163651542976815 -8.68294739737506 4 4 -6
1436 2 0.2891653333884979 -10.867011369057305 -13.376080801180864 -8.600322696335652 2 4 -5
1482 1 -0.01404456048908698 -16.66481239975081 -10.058865783517357 -10.573980956463156 5 5 -5
975 1 -0.04467968192854781 -3.629586397903039 -10.389193682838004 -15.927326325845957 3 5 -5
985 2 0.04114352880077946 -0.576238474034411 -9.429087394272534 -16.35719146237074 4 4 -6
902 2 0.2676325269727169 -2.444173237323914 -12.521241186326927 -15.451499235660185 3 5 -5
1437 1 0.02849562961029991 -7.797506617917354 -10.325883029539277 -10.712117521292196 4 4 -6
1446 2 0.04678681667755741 -3.1247056803014055 -11.549632172633466 -14.144264629319535 3 5 -5
1984 2 0.02461515228813304 -1.8950572994644523 -15.820221859282524 -8.635729087323282 4 4 -6
1445 2 0.01950263395958685 -5.661305953861353 -10.308957209562449 -9.904843651584333 4 4 -6
1442 1 0.2268262255568264 -6.286540937572147 -13.023653938803266 -11.89528509249923 4 4 -6
1517 2 0.02468932561844828 -1.0122296332354357 -10.709758902565953 -10.342657045151686 4 4 -6
1381 2 0.009500940083837671 -7.288939029396725 -16.081681749660103 -10.465915758581206 4 4 -6
1977 2 0.01866557341455953 -4.64479965095092 -14.652902243544553 -8.60051622232782 4 4 -6
1504 2 0.0182515496532718 -7.291615951903856 -9.313250266932476 -8.808683091131721 4 4 -6
841 2 0.04453565340410096 -3.1792322838791542 -15.257784481804604 -16.35995480825276 4 4 -6
1972 2 0.007987137903421995 -6.675308382260328 -12.187597086443342 -8.472067317314393 4 4 -6
893 1 -0.08178977866029388 -7.909901816531513 -12.990215099527791 -15.833298465699864 2 4 -5
974 1 -0.01339590807692869 -4.409375859539436 -9.24646631303903 -16.17208958598686 3 5 -5
901 3 -0.5998789445715622 -2.6369331541080103 -12.705238584451108 -16.430812185603735 3 5 -5
1508 2 0.0993920291846859 -4.333051922980602 -10.24525474260622 -13.774260266925587 3 5 -5
969 1 0.01996319591661747 -7.3347783891694736 -11.673550410147863 -15.622062791564897 2 4 -5
1514 1 -0.03677598139662705 -1.8944197175450652 -10.945976800600905 -9.675683859177939 4 4 -6
1516 2 0.01300351020346047 -1.8408928992359863 -8.507001845485108 -10.976290794308655 4 4 -6
838 1 0.2712470728338072 -4.502251035653857 -15.47126964342311 -14.29510839357038 4 4 -6
1384 1 -0.0418380586728105 -5.3156979915584746 -15.941474107787627 -13.238695678926605 4 4 -6
911 3 -0.5849618500093814 -0.34696545773555737 -14.25515215720646 -13.61361798831486 3 5 -5
839 1 -0.03115744907653498 -3.2705605878328496 -16.180802675831583 -14.502740362756725 4 4 -6
844 1 0.01316712324424322 -2.3132692701472384 -15.782855566104596 -15.727305249171371 4 4 -6
913 2 0.2456242841050634 -0.3031663925189476 -13.421593116684681 -14.212936642572103 3 5 -5
1438 1 -0.01908492469523456 -6.311997061597833 -10.70206532369713 -10.792620485991055 4 4 -6
1382 1 -0.005766081065160321 -6.758261556447776 -15.40504234949524 -13.00278971710038 4 4 -6
836 2 0.295994858887445 -4.536394503921474 -14.36894363059499 -16.151906527316285 4 4 -6
1502 2 0.1055106005276153 -6.771857794813081 -8.942011161020451 -14.175750861955857 2 5 -5
1449 2 0.01681578911524081 -0.6646230505601155 -10.811054833607038 -14.221761514368193 3 5 -5
1440 2 0.09929317043795693 -6.020069432019987 -10.327782146808488 -11.74265623350659 4 4 -6
837 3 -0.627024948883843 -4.905723627405024 -14.351527307217673 -15.240002653903485 4 4 -6
1518 1 -0.02736086237251216 -0.92029442486053 -9.782402274200253 -14.013167462483926 3 5 -5
1379 1 -0.06203821545132743 -6.544347402311764 -14.436554141050875 -11.823409810673029 4 4 -6
967 1 0.01399087507469915 -8.04278394252228 -10.520791393652365 -15.207789815008091 2 4 -5
968 1 -0.02408882901702053 -7.269173899446816 -9.015953477671374 -15.116957517521456 2 5 -5
1439 3 -0.6111182051718101 -6.027249286636495 -12.220535821835757 -13.16076940016088 4 4 -6
846 2 0.07748056093098235 -1.4183370029434053 -15.198567301049808 -15.416147325793908 4 4 -6
1501 1 0.0008259471464018946 -8.17257731939153 -9.574539083823723 -9.553920612033766 4 4 -6
1448 2 0.035837590361095 -2.203081026269048 -13.347395666139168 -9.403082864571509 4 4 -6
1512 1 -0.0005815677928366486 -2.6458624870183165 -9.622655228046412 -9.297659691726933 4 4 -6
833 2 0.03471416189255216 -7.293967941017652 -14.784234841934385 -13.786117089174871 4 4 -6
1510 1 -0.001372463972129151 -3.4595611013196885 -10.529739111458346 -14.354647814021362 3 5 -5
1380 1 -0.01572495535675913 -6.958130548218285 -15.053859890326471 -10.642732232802901 4 4 -6
1447 2 0.03318871004249067 -2.593310013927951 -11.57603504231166 -10.18253712583034 4 4 -6
897 2 0.3156101316713244 -6.058106869638502 -13.03284009046504 -13.69103183097299 4 4 -6
1515 1 -0.03433465154484412 -2.2817825289496456 -9.486731918179482 -13.875135197881018 3 5 -5
970 2 0.01982031923409672 -6.774255183578598 -8.79970547214899 -16.01105726578989 2 5 -5
1443 1 -0.02214316541333741 -6.697247135178953 -12.84629215001459 -9.404414927988666 4 4 -6
1378 2 0.01605268540400985 -7.311667251860878 -16.210608487264775 -12.588799518009422 4 4 -6
1444 1 -0.00458185695477541 -6.941542099466769 -14.293635963679758 -9.438618065292136 4 4 -6
1441 1 -0.03284372128815066 -6.39268012565242 -12.313996642470428 -10.649329338160912 4 4 -6
1980 1 -0.01206840399346155 -1.8589266159978453 -12.972079369518358 -8.426616828397592 4 4 -6
895 2 0.06697508780043068 -7.274995232596171 -13.876981417951443 -16.109017411505015 2 4 -5
971 2 0.05657921081101402 -6.270952157519109 -11.34996252634484 -15.717032251203301 2 4 -5
976 2 0.08991204596380944 -4.833008669084715 -8.599448221601547 -15.437003602422473 3 5 -5
1513 1 -0.01354681188021036 -2.5009610526099375 -8.48129140614745 -10.146989118947149 4 4 -6
1892 2 0.03065793391795471 -8.184444408106039 -15.472783674501219 -8.395532186432698 4 4 -6
2536 2 0.01065630012888056 -13.43917419814605 -10.245942670391642 -4.011595458169398 3 4 -7
2476 1 -0.01211896018281827 -12.433864201758947 -8.92781928104185 -1.8899057526710155 4 5 -6
2993 1 -0.04035068146813637 -11.517099505538832 -9.317055221490945 -0.6570776333989437 4 5 -6
2478 2 0.004677008552220554 -12.503876933586076 -9.512562856035572 -2.828126443161745 4 5 -6
1959 1 0.02277871702464437 -14.436663746917908 -11.10720286500237 -5.8777931225698214 4 4 -6
2469 1 -0.02007637896559031 -14.066471943050573 -11.077662907639343 -4.30536511772 3 4 -7
2473 2 0.03484545583973065 -13.407064167186062 -8.555728285170325 -1.5055535983969015 4 5 -6
2988 3 -0.6430412434445365 -12.932611697574059 -11.406147172302509 -0.7223027154877504 4 5 -6
2470 2 0.07349530342711226 -13.730813257211802 -11.982190216519912 -3.8768703169839003 3 4 -7
1961 1 0.008498696065435404 -14.286138664849911 -12.391938681997233 -6.498261612388594 4 4 -6
2479 1 -0.02504796213594957 -8.957279539691944 -11.50582117295815 -3.546560583574886 3 4 -6
2477 1 0.009374196893289194 -10.07331235483042 -11.585724376124885 -4.455593369682476 3 4 -6
2467 2 0.0651832055989041 -14.47550025985913 -12.779046168891478 -1.6109143609645709 4 5 -6
1963 2 0.08385584597739767 -14.33725373656266 -13.471926721928316 -6.0524252384816055 4 4 -6
2474 2 0.03823896082340059 -11.160770356176803 -11.488076594883905 -4.222944062147174 3 4 -6
2466 1 0.005152939945626163 -14.865584006073568 -13.672333851419854 -1.0192387737374329 4 5 -6
2020 2 0.02622508999316017 -15.260468725168472 -9.144034556492675 -6.610572066160129 4 4 -6
1957 1 -0.02798593052171033 -14.65497472802407 -10.049386282000818 -6.819972896329675 4 4 -6
2412 1 0.007556982258170395 -9.289023794117426 -11.122312545068919 -2.073373665361222 3 4 -6
2411 2 0.02922748174396525 -9.648163583639935 -10.044317460484496 -2.248322628773517 3 4 -6
2413 2 0.04332682120956526 -10.029467153651602 -11.905212473570115 -1.8217339744209553 3 4 -6
2475 1 -0.005517549304950173 -9.763425586447033 -11.38443433997673 -5.855927517358845 3 4 -6
2464 2 0.03668858290080011 -15.607053961314888 -14.12659475932425 -1.6759396091167231 4 5 -6
2402 3 -0.5843657018811795 -12.854560857408773 -14.12708506446411 -3.2726262690718255 4 5 -6
2403 1 0.2439974444348211 -12.8601734007875 -14.950010684431351 -1.983099231204886 4 5 -6
2472 2 0.04564641601924245 -10.586512888618646 -11.22536617392286 -6.668049814632231 3 4 -6
1958 1 -0.05406245318652929 -13.855392027453322 -12.52209956006027 -7.811228987927495 4 4 -6
2468 2 0.3032995103539786 -13.833630952274873 -13.799707908567733 -3.283342410093657 4 5 -6
1955 1 -0.05173108261588175 -13.946851160107348 -10.12464467998738 -8.165687497766859 4 4 -6
2465 1 -0.0500080534478842 -15.341120711751708 -10.889842035710918 -3.5620652402360506 3 4 -7
2532 1 -0.004328208405453806 -15.726178280327716 -9.745980734170843 -2.905966719467703 3 4 -7
2533 2 0.05285947673246452 -15.05724920204999 -8.910773671946835 -2.7610945660389974 3 4 -7
1887 2 0.05125199280289266 -13.279851189359247 -15.705656920342042 -6.106306974156696 4 4 -6
1885 1 -0.003512014561958054 -14.098862210252245 -15.908206410618075 -6.828525889267917 4 4 -6
2463 3 -0.7002145646625612 -15.665916594453392 -13.392358380004634 -4.193001582426656 3 4 -7
2462 1 0.2384476550255862 -16.098724448171716 -12.08048262910727 -3.4763580058946038 3 4 -7
2405 1 -0.01816875824907498 -11.807011017055196 -15.878196285321716 -1.7251104001158108 4 5 -6
2409 2 0.08045358759853123 -10.327017241365144 -15.311128727108738 -3.411994909945904 4 5 -6
2401 1 -0.01360220878630887 -13.598728396494389 -14.680134378775538 -0.84987823057388 4 5 -6
2985 2 0.07255980595112066 -14.880141551201582 -11.10805144955716 -0.1193377101530048 4 5 -6
1884 1 0.003760243985320766 -14.586308688882111 -15.086489952737452 -7.911945653757097 4 4 -6
1965 3 -0.6008540215633579 -10.347874373846363 -13.981181274691675 -8.058189098994095 2 4 -5
2407 1 -0.01141742725795365 -10.656824230296879 -16.2157192930107 -2.8058109294035134 4 5 -6
1890 1 -0.06938282967164083 -10.586541739688853 -16.535544828379354 -8.217298608160597 2 4 -5
1891 2 0.06035609706836531 -10.390802586460602 -16.46787063551057 -7.138042324003473 2 4 -5
2406 1 -0.003225026083148282 -11.572058771265644 -16.459150406486565 -0.4029490483949059 4 5 -6
2987 2 0.2694725085752507 -13.02533936866189 -10.972765680292053 -1.5766952884884005 4 5 -6
2991 1 0.2541945195093347 -11.837790064596309 -10.592478085762243 -0.06011721270891768 4 5 -6
2399 2 0.07144667416426057 -13.377563368827303 -16.4467113258373 -3.3780679466819112 4 4 -6
2997 1 0.003556745131322999 -10.492123586847937 -8.532382877930928 -0.14150185959567552 4 5 -6
2531 2 0.3120407365605841 -16.435093461916782 -13.771619456383396 -4.476221826039971 3 4 -7
2410 2 0.03108206685146513 -9.733181680321897 -16.584318228600797 -2.26303180100763 4 5 -6
1967 1 0.00506956339930708 -8.437319234525393 -11.774596332573351 -6.182803960856528 3 4 -6
1953 2 0.05154958733456215 -14.946114912443102 -16.432293799914294 -4.444072290065036 4 4 -6
2927 2 0.03305138564036122 -9.079686704160057 -12.86686972105976 -0.1773107822335082 3 4 -6
2424 1 -0.008680622866840862 -2.8985546773698183 -14.091886784928475 -1.7637314331298881 3 4 -6
2492 2 0.03772355725925561 -0.7890618022102114 -12.531674221334384 -2.525850094798363 1 5 -3
2430 1 -0.01129527167994036 -0.40083625967534786 -13.579765134835316 -2.399216815644741 1 5 -3
2929 1 0.01120867458769773 -8.161000527892872 -12.204528667990706 -0.07422800705610672 3 4 -6
1897 2 0.316943445404727 -8.253973128320657 -16.44620177066076 -6.424697847950854 4 4 -6
3005 1 -0.02076916630649178 -4.799139758278773 -9.622181243824294 -0.18757758769425145 3 4 -6
2036 3 -0.6178003599589671 -1.896231057564337 -8.650301263278475 -5.076084988738605 4 4 -6
2481 1 -0.01475601968867617 -8.130675405648995 -11.225088500402363 -1.0098188918904556 3 4 -6
3006 2 0.03514533466046235 -4.958453342784974 -9.13625300064512 -1.272304400111212 3 4 -6
2032 2 0.01159358074892774 -3.513009884395341 -10.348907246584773 -7.470841361182368 4 4 -6
1976 2 0.04315781479802164 -3.74912011535785 -13.021073013905374 -4.148953441236605 4 4 -6
1971 2 0.05755127780067208 -7.730361835763915 -13.971092673643899 -7.371328375962207 4 4 -6
2425 2 0.0498122381844447 -1.4632096305543005 -16.393219387560542 -0.9534233958428939 1 5 -3
1973 2 0.03401297608842357 -5.981100269964274 -13.747943847711875 -5.3416713539789304 3 4 -6
2426 1 -0.0009675503099298849 -0.8090536399455803 -15.681327210856834 -1.4521697740992952 1 5 -3
1974 1 -0.003644542051017607 -5.118950451041796 -11.689879467822452 -5.245745543983832 4 4 -6
1509 1 -0.003870926181958004 -3.39741085341723 -9.426542727353326 -8.147501845418446 4 4 -6
2556 2 0.01630520122249377 -0.6892474259701928 -8.360729827119693 -2.424061161669473 3 5 -7
3012 1 -0.036893149542292 -2.942914240144043 -12.94052565774852 -0.7148008017768868 3 4 -6
2486 2 0.02247913008403211 -3.917319593128305 -11.460240194942928 -2.210861004814916 3 4 -6
2419 1 0.006250889132951309 -5.936254023051345 -16.141499501979375 -2.376890606898388 4 5 -7
1975 1 -0.008702399672775633 -3.8384961244212468 -11.982173584713268 -4.584572056564323 4 4 -6
2035 2 0.2367647361724525 -0.9606361271031024 -8.939361479110067 -4.766339444388141 4 4 -6
2487 2 0.01984390780462653 -0.8110795919255248 -12.296907660147212 -4.092034317760574 4 4 -6
2027 1 -0.02111558652833265 -5.3038430779510355 -10.312054316161342 -5.691055128052628 4 4 -6
1905 1 0.003642856766662018 -3.647414970889031 -15.908832873468045 -7.165925879317441 4 4 -6
1970 1 -0.02567693396963952 -6.191603133153311 -12.715065821282144 -5.763613913512309 3 4 -6
3007 1 0.009165541890959493 -3.9534073940623147 -10.947775753686583 -0.05701117921489109 3 4 -6
2554 1 -0.03052461638468443 -1.0784009125373049 -8.740365415197033 -1.4672626762615997 3 5 -7
2488 2 0.269375877327921 -0.7802522353544933 -14.04358366961074 -4.526504284983947 4 4 -6
2480 1 0.2609047090807854 -7.814571369194663 -12.23575845986847 -3.7533346270531744 3 4 -6
2417 1 -0.06360244755825627 -6.619242016874083 -15.790979068714279 -1.2249771535537282 4 5 -7
2483 2 0.2875315796751512 -5.7898739112637765 -9.534206001425508 -2.5388147001715864 3 4 -6
1985 1 -0.01611511023945292 -2.120899512956118 -15.490733560947158 -7.567846467755061 4 4 -6
2482 1 0.2848760242027185 -7.032788108935972 -10.416517431283332 -1.0701063762785232 3 4 -6
2485 3 -0.6434035344874314 -6.700779343759919 -9.587023332326513 -2.2891316573115197 3 4 -6
2490 2 0.06064336817390849 -1.361239134147551 -9.783368790109591 -1.4991515981259822 3 5 -7
2423 2 0.03308958510830866 -3.3946505880593207 -14.928148319007908 -1.2581383382479192 3 4 -6
1983 1 -0.01688189265529815 -1.8040491886777394 -13.933133120219399 -7.453005643849974 4 4 -6
2038 2 0.03982444633431387 -0.9342019745005575 -10.032399764181527 -6.980027792332494 4 4 -6
3010 1 0.007906220067135861 -3.5962988245837284 -11.72254380820575 -1.1169667681309219 3 4 -6
1986 2 0.0506358825421503 -1.5349741932784713 -15.95251731935865 -6.768095396664051 4 4 -6
1900 1 -0.01302682859554586 -4.801050144262598 -15.29087047827145 -7.793940681915756 4 4 -6
1966 2 0.03286982749681126 -8.35020009253319 -11.972731977155755 -7.268909664095414 3 4 -6
1893 1 -0.01467001617164473 -7.367674186092889 -14.841166509250893 -8.045339351917368 4 4 -6
2040 2 0.009849067130573076 -0.7921907102686778 -10.432641012278975 -4.27164505484258 4 4 -6
2033 1 0.2534439981534651 -3.0210239745427856 -9.665407636812542 -5.234578836185383 4 4 -6
1899 1 0.2782579905003746 -6.313190373862824 -16.410306731685708 -6.190849190671854 4 4 -6
2489 2 0.02833216609666837 -3.5235605478655723 -13.776392293185014 -2.6512484904139897 3 4 -6
2037 1 0.005180380596237445 -1.2924223234415038 -11.423670749500243 -4.620518002812283 4 4 -6
1906 1 -0.007740747964253555 -3.8451517535839894 -16.649608289108542 -5.9373566333650825 4 4 -6
1968 2 0.01292921990072888 -6.40274137270432 -12.633570534156993 -6.890557674205058 3 4 -6
2034 1 -0.04718650268785217 -2.7864132530484 -11.016564442867887 -4.805990706318184 4 4 -6
2421 2 0.02041676095899904 -4.963371884254111 -15.57515447175156 -2.580310566579418 4 5 -7
1895 2 0.2601069482675346 -6.137956513452806 -13.051709808096403 -3.0757048750782414 3 4 -6
1981 3 -0.6369897460585768 -1.58589582792563 -14.331917676739538 -4.965292703030857 4 4 -6
2416 2 0.05557201535669568 -6.1226583158414725 -14.965154519119864 -0.8255112575889562 4 5 -7
2427 1 0.04081750254501861 -1.339463462611596 -14.463876021624591 -1.9849017564324163 1 5 -3
1979 1 -0.04564126037689049 -1.105182696042736 -12.040471838984114 -6.061624751350381 4 4 -6
2025 2 0.02325005560297703 -6.274296705101745 -9.928708249545785 -6.011760115925678 4 4 -6
1898 1 -0.0662581426599371 -6.130287168447256 -15.539065126240953 -7.252852135172662 4 4 -6
2484 3 -0.5849814934429921 -6.987108866957183 -12.915219074389693 -2.598708649972836 3 4 -6
1982 1 0.2399417529956138 -1.4937364660050019 -13.416683490986141 -6.187099868235704 4 4 -6
2030 1 -0.02734910794262062 -4.295121998368109 -9.20186723923591 -5.576989017412268 4 4 -6
2039 1 -0.008605182696480446 -0.9818743447157249 -11.03338729373442 -7.1166946596265985 4 4 -6
1969 1 -0.04307121861569987 -7.628130498169263 -12.326761701903854 -5.11349181299017 3 4 -6
1978 1 0.008872391834255878 -1.5126870975368663 -11.571396357025847 -8.312057904895614 4 4 -6
3576 1 0.001029122284885779 -14.138842281073087 -8.531170189172808 6.245498140319927 4 5 -7
3575 1 -0.04460442127516429 -14.774217460929709 -9.61257416147622 3.7453877787645373 4 5 -7
3516 1 0.002163610725475291 -15.0763093231361 -9.64158939824283 6.1477163307186125 4 5 -7
3524 2 0.02819383222444648 -10.669116861873158 -10.032929968029372 3.572850039706687 4 5 -6
3525 2 0.0496214363799885 -10.66570135408632 -9.990802639125532 6.238637460964459 4 5 -6
3515 1 -0.01875145188687736 -15.558235921721842 -9.945690509417798 4.78367056623048 4 5 -7
3512 1 -0.01687748328211056 -15.682318736408632 -10.260027860334551 7.486102418129264 4 5 -7
2995 2 0.01401151427460733 -9.31415378175407 -10.654856523354304 2.3480027713482117 4 5 -6
2981 1 -0.02576327534333114 -15.176348977146517 -10.072270570404376 2.2936118897449376 4 5 -7
3522 1 0.0003126796528751946 -11.089842530698265 -10.854186482230148 4.192551849479325 4 5 -6
3523 1 -0.0613973161360771 -10.850054537392817 -10.905231045460775 5.628875622862065 4 5 -6
3520 1 -0.01527839420098764 -11.18393726667332 -12.092452253864339 3.4120687494288373 4 5 -6
3521 1 0.2474245679806392 -10.924285771206632 -12.170861309625714 6.230841125167949 4 5 -6
4048 3 -0.6109619080664175 -11.040177401667401 -12.210700671625501 7.801533724763804 4 5 -6
3517 2 0.03723216415701201 -13.587949817485153 -13.564373652530016 6.473826999926756 4 5 -6
3519 1 -0.01513150438788583 -10.695703596947384 -13.309364640006732 5.413197604083962 4 5 -6
3518 1 0.004570094640083684 -10.80865205745471 -13.312077545662047 3.9840518952372106 4 5 -6
2989 1 -0.01713092028295567 -11.692948189084504 -12.230425153932652 1.9271833264545752 4 5 -6
2982 1 -0.01488598162284941 -15.626017565533475 -11.533124276978022 1.9161958022132253 4 5 -6
2979 1 -0.04450923868024217 -16.178815411163395 -13.868876902534792 2.5316746954478115 4 5 -6
2994 1 -0.01988081520148902 -9.963333545218442 -10.390796702773033 1.5605281760903218 4 5 -6
3514 2 0.04359963885150316 -15.305430168230949 -11.200850056477325 7.066647738935834 4 5 -7
3456 2 0.03853139858107774 -10.939426620526284 -14.234506140800212 3.3792461252952037 4 5 -6
2914 1 0.240101459767274 -16.087501984412164 -14.200450947540562 1.155585674433758 4 5 -6
3451 1 -0.01439043914141745 -13.404406124339118 -14.681716918224643 6.377000180797437 4 5 -6
3457 1 -0.01374468215993143 -10.656811674847699 -14.672014325130604 6.081868467777948 4 5 -6
3989 2 0.0544677868374356 -10.034026149015565 -14.690294495328517 7.016775913058845 4 5 -6
3055 2 0.08669668781993142 -14.398438039030118 -9.552752192004846 1.6709342903556665 4 5 -7
2926 2 0.04068993368077926 -8.678674104490387 -13.69658197358864 1.6153204250628312 3 5 -6
2918 2 0.009691465543588441 -13.942423491746949 -14.92047943063708 3.5179494676826377 4 5 -6
3453 1 -0.002839635760432169 -12.165767196358075 -15.260636381912377 6.02021452112884 4 5 -6
3447 1 -0.05625750701631111 -14.550087702710607 -15.48802563445505 6.441270280417436 4 5 -6
2980 1 -0.02112428364756584 -15.897601676900212 -12.533931677327368 2.9747479387854874 4 5 -6
3987 2 0.02475078148677802 -11.701809854103681 -16.257981621036286 7.990243183061581 3 5 -6
2984 1 -0.05673309353893297 -15.563975970312285 -13.233940539920907 0.3121860698758125 4 5 -6
2920 2 0.04073173793659823 -14.036240721694478 -15.098437177858798 1.3449112596399027 4 5 -6
2983 1 0.008158530231003821 -15.323844410866117 -11.876945476833509 0.6104058198808776 4 5 -6
2921 1 0.01226974433567199 -13.342503259493125 -15.21951059286096 0.4665731112282225 4 5 -6
2992 1 -0.01874019618447925 -11.227842273388484 -10.91381853905535 1.1874235754162235 4 5 -6
2986 2 0.03891684200282875 -12.821447887240101 -12.197991241061121 2.0387498935281103 4 5 -6
2990 2 0.02616691093390273 -11.357469549054978 -13.18606933570435 1.6104664242838143 4 5 -6
2917 1 -0.02143065251069888 -14.387001468819681 -15.95067035339468 3.2874070579763415 4 5 -6
3458 2 0.07534549376059502 -10.0570860836025 -15.298167600407231 5.45653318205792 4 5 -6
2998 1 -0.006731847369860282 -9.64838067631986 -9.238488880304061 0.7102567217792094 4 5 -6
3577 1 0.2539970759792141 -13.693605541382569 -8.804150767821216 3.867021351789263 4 5 -7
3452 1 -0.03122516550693866 -12.22717560214893 -16.673873767925723 5.733439177669888 4 5 -6
2925 2 0.02328043257231333 -11.918247814208469 -15.85726224560286 2.784916033736428 4 5 -6
2911 3 -0.6402148257050925 -16.56252025117851 -15.600862457029145 0.6630484202484849 4 5 -6
3513 2 0.01491804808115662 -16.084780365229555 -12.329979976717734 4.049780145244793 4 5 -6
4101 1 -0.004520104617267066 -15.817735473400052 -14.840438785184213 7.057930874929026 4 5 -6
2916 1 -0.01288144633482008 -15.786497397285979 -16.225325478883274 3.466124002041244 4 5 -6
4049 2 0.2891315608032558 -10.917073993555425 -11.302611514964138 7.989147655073096 4 5 -6
3460 3 -0.643941276739021 -8.412694912575507 -15.271525457572723 3.875607473660809 3 5 -6
2922 1 0.01848922503421831 -12.350732643770407 -16.13680171939658 0.7241251694920565 4 5 -6
3053 2 0.01207181706279207 -16.11169048090283 -9.559670034893134 2.1841369517907885 4 5 -7
3571 2 0.01529033852522858 -16.345302300140325 -10.719693103507437 4.656062774868503 4 5 -7
4042 2 0.07250359514218548 -15.979013978793107 -13.739213375563136 7.042203252551908 4 5 -6
3459 2 0.3200430712870829 -8.556983004748833 -16.19201221105545 4.064220026202381 3 5 -6
3058 3 -0.6619893153859792 -12.803772302031849 -8.548952086340723 2.665489050336136 4 5 -7
3569 2 0.07963934800308038 -16.657265039423464 -15.41637549213569 6.669342214580807 4 5 -6
3992 1 -0.02766669081912183 -8.438767382471257 -16.59737804838076 8.057327299652247 3 5 -6
4118 2 0.05987873463332812 -9.059437165844969 -9.880126892042698 8.196691714228633 3 5 -7
4050 2 0.1027385129950652 -7.93323451014688 -12.635289713369774 7.859700717054146 2 5 -7
3003 1 -0.06129916516479322 -6.213636183740139 -10.256727443050337 0.05526247636677054 3 4 -6
3002 2 0.02305993401720245 -7.702686335094585 -8.864018426887887 0.9498199517988637 6 5 -6
2931 2 0.277568936946156 -7.94814623547245 -15.957609422882147 1.1168805863781281 4 5 -7
3543 2 0.01671266317791575 -2.0597120825989896 -11.544455317511185 7.933774116128177 2 5 -7
3016 3 -0.6230402540079328 -0.31566865853787673 -11.202018833114282 0.24457440274973608 3 5 -7
3477 1 0.006974304075362833 -1.936915207938227 -16.46655959806963 4.164838808662448 2 5 -7
3462 1 -0.02168709028243639 -6.92524834543385 -16.67788768518058 6.135346163236704 3 5 -6
3537 1 -0.03448427976657836 -2.239599241055268 -13.307787728467765 6.034907590742081 2 5 -7
3470 2 0.009618187673771345 -3.923578315736517 -16.346458993252682 3.978127387396914 3 5 -6
3468 1 -0.01378549303229643 -4.775619510075959 -15.683206339626032 3.4951590664602126 3 5 -6
3590 1 -0.01176594978782333 -7.9219171468532235 -8.494826947197925 3.280420013594851 6 5 -6
2928 1 -0.01561943729645947 -7.791472272809539 -13.188108106707327 1.976902447380711 3 5 -6