LAMMPS data file via write_data, version 2 Aug 2023, timestep = 940000, units = real

3700 atoms
3 atom types

-16.71546325737322 16.71546325737322 xlo xhi
-16.71546325737322 16.71546325737322 ylo yhi
-16.71546325737322 16.71546325737322 zlo zhi

Masses

1 12
2 1.008
3 15.999

Atoms # charge

886 1 -0.03373567692527833 -10.1454029493853 -11.044798566975023 -12.613022550323915 2 4 -5
883 1 0.2033408378380413 -11.03919650242043 -10.294756239838044 -12.054680322790253 2 4 -5
1431 1 -0.01429836203237508 -9.087392289096618 -11.362773003277429 -11.676782903181055 2 4 -5
1428 1 -0.04484019151295633 -11.032821820633707 -9.894828421665753 -10.712990821773532 2 4 -5
1486 1 0.02718766421063185 -13.457583235664227 -9.284500005771568 -10.650264222355192 5 5 -5
814 2 0.0332312054703811 -12.759947239093485 -12.19303353161892 -13.555159453427018 4 5 -5
1367 3 -0.6617267475699964 -14.886635730551385 -15.086374767037167 -12.365698072664296 2 7 -3
879 1 -0.02322194881295121 -13.687461801396198 -12.176656214962806 -14.244842044443645 4 5 -5
878 2 0.08149036474016083 -14.679691595329718 -12.5272503302819 -13.859621443735703 4 5 -5
887 1 0.01136751984052967 -9.806919869350123 -11.42253679769807 -14.003221357458782 2 4 -5
1298 1 0.2329353747025919 -15.046472168909741 -16.051331595032604 -11.078933195881223 2 7 -3
1420 1 -0.007071860185960514 -13.833892722371429 -10.545455965559078 -11.126805589248631 5 5 -5
813 1 0.008948514426054165 -13.316341965918781 -12.799272220551817 -15.525260313922457 4 5 -5
946 1 -0.02855898482641348 -14.106070361097345 -10.791074476387593 -14.927572350711932 4 5 -5
1368 2 0.3150493583515981 -14.897845651416853 -15.53122475072916 -13.107329693970861 2 7 -3
945 1 0.2306594889131836 -15.473465017477025 -10.334647835698846 -14.987044526409106 4 5 -5
947 1 0.02281132628689145 -13.219429172656616 -9.943433810103267 -15.508181017971795 4 5 -5
378 2 0.08923019640981569 -12.0950187873236 -10.261271627224628 -15.473852264517339 4 5 -5
885 2 0.07944408393739889 -10.734364665561758 -10.953037928196842 -14.411008955893113 2 4 -5
884 2 0.07093457469981383 -9.94344459296993 -12.68281368257977 -14.250885710655878 2 4 -5
1370 1 -0.01835182016205735 -10.338692195937782 -10.627433337725197 -9.68791687174301 2 4 -5
375 1 0.009800897180078125 -14.119787782460063 -13.04844496150532 -16.68227822570014 4 5 -5
1430 1 0.0006701843834553967 -9.419530025020855 -11.55909610809625 -10.270369288291112 2 4 -5
1372 2 0.01794732436360695 -11.224417583839847 -13.437230853235599 -10.462948236948218 2 4 -5
1365 1 -0.01121708034506226 -11.972591872865651 -8.822789790064665 -10.091699072428757 2 4 -5
761 2 0.02942177319553386 -11.711274734617694 -15.111076607071736 -13.902898932464636 2 6 -3
1481 1 -0.07982950379193467 -15.083530515001948 -10.749634207402222 -11.667683395315759 5 5 -5
1371 1 -0.01134552506449375 -12.24276602457809 -14.493209186657921 -8.746045745556309 2 4 -5
1300 1 -0.04674025371397722 -14.277118737786203 -15.903439175157946 -9.953071324973147 2 7 -3
1373 1 -0.0220894243481516 -11.24318978130045 -13.738476362400629 -9.379814295967277 2 4 -5
944 1 -0.04403284589764755 -15.72519926188093 -9.092208010509994 -15.496903317029222 4 5 -5
444 1 0.01010745559834637 -13.364032477685429 -8.54683903154143 -15.815407267406323 4 5 -5
1304 2 0.05086619290433297 -13.574453796334707 -13.812486551868435 -10.511983405092511 2 7 -3
888 1 -0.02153601096485521 -8.613847701574372 -10.788524697737916 -14.49748234847838 2 4 -5
1376 1 -0.01969543048377181 -8.935553080118924 -12.836641306271398 -9.352229294566644 2 4 -5
759 1 -0.03903850005937025 -10.753637783670568 -15.649106557432383 -13.83860731993323 2 6 -3
877 2 0.01579788880474672 -13.079720807983305 -11.33663332329783 -11.393734228377697 5 5 -5
1305 2 0.08310350129683111 -9.836186971365901 -15.294135026073487 -14.387844180064903 2 6 -3
1308 1 -0.02723637777338349 -10.102055286011556 -15.854066848863226 -12.464001759906909 2 6 -3
1302 1 -0.01938837687910342 -13.504036260259165 -14.560285601759281 -9.655953804622317 2 7 -3
1310 1 0.2165627664175401 -8.691165587569404 -16.114239752907558 -12.408242074626331 2 6 -3
1480 1 0.2735283622962622 -16.10232552899337 -9.755258220190658 -11.93204320125579 5 5 -5
872 2 0.06752114117359458 -15.533572799456024 -11.71912714901072 -11.709839380445032 5 5 -5
1418 2 0.03870398204262002 -16.19559104338044 -12.62008951223021 -9.75191275710977 4 4 -6
960 2 0.03820362536956437 -9.139022521741408 -8.752383149988793 -14.42124334908904 2 4 -5
1364 2 0.03961856271015599 -11.845364623152866 -8.711095837332348 -8.98282930195027 2 4 -5
1369 2 0.03567495807872795 -10.471364358867058 -10.425206739096067 -8.643198120875363 2 4 -5
882 3 -0.6630373641702211 -12.277982938329965 -10.026594753428448 -13.173868837691439 2 4 -5
873 3 -0.6293712059036993 -16.56388018951803 -11.3703273306099 -14.469645554207284 4 5 -5
1307 1 -0.02470033268890953 -11.062406191287756 -16.38059091204819 -11.406948569804587 2 6 -3
1374 1 -0.04004641232730051 -10.198761451535914 -13.308917348661916 -8.528505728922488 2 4 -5
1303 2 0.02648979194843207 -14.113623178220328 -14.049865502080953 -8.869173913491844 2 7 -3
312 1 0.03630555009548696 -12.663751320091283 -12.676948212158539 -16.64627610552796 4 5 -5
1483 1 -0.06701526567786323 -15.729364350794977 -8.538300121748788 -11.335162060218902 5 5 -5
880 2 0.3044287679570095 -12.966296576985034 -10.550063628119178 -12.993452859189377 2 4 -5
1487 2 0.0237733682956919 -14.725612536290877 -11.456004780270137 -8.6913986941183 4 4 -6
1417 2 0.0573652270759967 -16.38471623776121 -16.68792292436126 -13.406014735926732 2 7 -3
1306 2 0.0294396726388166 -12.117033420770042 -16.383378500218058 -11.477198683496031 2 6 -3
2013 2 0.03445687695839059 -16.530366790012593 -10.071579305821237 -8.938990726198103 2 5 -3
942 2 0.3403130320887878 -16.61019952143033 -11.33335124492514 -13.507038983503751 4 5 -5
890 2 0.06956694177608085 -8.165810191539066 -11.616641777591086 -12.162038381204926 2 4 -5
1377 2 0.01678407016914472 -8.351540638045288 -13.700533699033015 -10.00715368437108 2 4 -5
962 1 0.01985820628592919 -8.256506004537936 -9.418323117397511 -14.611168852479041 2 4 -5
1449 2 0.08373158715782293 -1.3766978981845341 -8.554259331414672 -12.108764355118772 3 5 -5
1312 1 -0.0559896902460694 -8.289612176055744 -16.64263710106295 -11.16767187963397 2 6 -3
1448 2 0.05966343352667883 -1.4729221184766754 -10.506910323977781 -8.598164337359398 4 4 -6
1321 2 0.0183880943383503 -3.177555792563078 -15.58527337947118 -9.376903542170773 4 4 -6
1316 2 0.01951812322051777 -6.996187023622639 -16.64943886081221 -9.78520703382695 6 6 -6
891 3 -0.6132889284416005 -7.515769613505903 -13.0527916149133 -14.312138235703385 2 4 -5
892 1 0.2992911405049196 -7.613031596195133 -11.693185051617894 -14.860221233013986 2 4 -5
889 2 0.3315526997088341 -6.948478054533863 -13.024173465323098 -13.626561241901321 2 4 -5
1315 1 -0.007081424019093866 -6.731803669217599 -16.44735917175492 -10.90105543924797 6 6 -6
386 2 0.256430771821083 -7.330344825896326 -10.353585920395338 -16.683601437281936 3 5 -6
1434 2 0.04648832353532262 -8.19870761408034 -12.58325314233441 -8.664335678942027 2 4 -5
1438 1 -0.03029103085334682 -6.696940869659356 -8.402313838578838 -9.298042105013298 4 4 -6
1441 1 -0.0677357396757808 -6.315390606285017 -9.905407537773538 -9.432210938557649 4 4 -6
1322 1 -0.04817562163711715 -2.1767992621686374 -15.160360802073185 -9.245110200142497 4 4 -6
1327 1 -0.007008975885033939 -0.051708112208230746 -16.39383090662198 -9.031229119885403 4 4 -6
770 3 -0.661083524124105 -5.135015702950813 -16.570216245838083 -12.938883819693851 6 6 -6
895 2 0.1021059988803898 -6.00389137110948 -11.989540954395569 -15.633293775484427 2 4 -5
826 2 0.1060957876678397 -7.201768544916522 -16.236704900405186 -15.47660669166454 1 6 -3
901 3 -0.6764150535042321 -2.070787540426897 -9.968438678086846 -13.74609667721124 3 5 -5
1385 1 -0.00896646533163312 -3.833174881780351 -13.872283070632816 -10.720822522338988 4 4 -6
1379 1 -0.03112043812901212 -6.0271479697479124 -11.937736088999138 -10.524055731745904 4 4 -6
837 3 -0.6351490055700045 -3.92381748193226 -12.524529883185183 -14.321038985098907 4 4 -6
967 1 0.02180594718300161 -6.945168730884218 -8.783686270479071 -14.874820588911172 2 4 -5
898 1 -0.01267184330034693 -1.2327228100737047 -9.435035393248974 -16.487266442611876 3 5 -5
833 2 0.09740343970566578 -6.091201752895123 -11.994677917292531 -12.553537617677014 4 4 -6
766 3 -0.6077735601973593 -7.647342271979424 -15.540769659433654 -13.372248797444874 2 6 -3
1378 2 0.03966227362290344 -6.200262591560366 -13.84625851908907 -11.88125512959005 4 4 -6
764 2 0.3354964854110762 -6.95896846491351 -15.684575633489734 -12.80138924363937 2 6 -3
329 2 0.02930471386743705 -3.821759814211951 -10.726588680107477 -16.441089819084766 1 5 -3
1388 1 -0.02280482476559145 -1.562789013792704 -14.003927909053795 -11.679232890922854 4 4 -6
1384 1 -0.001931304548533522 -4.291083168402705 -13.125402206941184 -11.843967128758258 4 4 -6
838 1 0.259609254926301 -3.3913515784297728 -13.053312298994014 -12.95711750444927 4 4 -6
971 2 0.01097564941347406 -5.172367076265207 -9.091030612414615 -15.577715630002732 2 4 -5
399 2 0.05333837376977996 -0.5627065216845364 -10.017632140903807 -15.723147502487025 3 5 -5
1446 2 0.07139925962882761 -3.6788209048968556 -9.092555041941361 -12.181119204015623 3 5 -5
836 2 0.2841301280006088 -3.248362254314181 -12.614286383907299 -14.948303894434002 4 4 -6
897 2 0.2681119570029367 -6.9271704577841735 -9.180948857540999 -11.740509119519553 4 4 -6
844 1 0.002706159193318724 -0.8593200234639937 -13.092488497280854 -13.849464591127806 4 4 -6
1381 2 0.0151965135049522 -6.259440747556239 -13.65095498322426 -9.459356944537245 4 4 -6
845 1 -0.04051987938174485 -0.9080874582951758 -14.655918866505742 -14.384796437884052 4 4 -6
839 1 -0.02522164563930663 -2.002633719205526 -13.270813541307756 -12.886041577021174 4 4 -6
1439 3 -0.6122518390929235 -6.481700137137007 -9.979575447406512 -12.075935781822434 4 4 -6
1382 1 -0.01624145854443258 -5.784247977259377 -12.746578308484843 -11.863276141687638 4 4 -6
1314 2 0.04220826063622303 -6.33912696046868 -15.525684336585716 -11.263996155040504 6 6 -6
840 2 0.03739310190284088 -2.697438853928665 -14.166930165199439 -15.460727567242422 4 4 -6
893 1 -0.08191857136921007 -6.4697695078825035 -11.088383096308538 -15.291080073594117 2 4 -5
842 1 0.007408321106333059 -1.906879235037825 -16.392710906152754 -15.632752172826875 4 4 -6
1383 2 0.01811961460003562 -4.40044785771414 -14.156074770038693 -9.885416039506278 4 4 -6
902 2 0.3359144278309915 -2.7398064067111694 -10.562297175276948 -13.875304568417876 3 5 -5
843 1 0.004806223791997688 -1.881205011138853 -14.988131561030348 -15.24730953308648 4 4 -6
969 1 0.005258554247985813 -6.0371006488699335 -9.741019389565313 -15.350296974595157 2 4 -5
1386 1 0.01146405850980467 -2.500295400183104 -14.32210670881976 -10.60098094335483 4 4 -6
841 2 0.0387287571810257 -0.8156482152867218 -12.274502689592858 -14.64702441593166 4 4 -6
1442 1 0.2098751494572378 -6.2388267232357135 -10.574428188142722 -10.628849598636483 4 4 -6
1380 1 -0.02284519670163345 -6.128957069065903 -12.592965601276308 -9.285822107065636 4 4 -6
1389 2 0.1318172722107521 -0.509645522041895 -14.455599835919346 -11.759542342933505 4 4 -6
899 1 -0.05607651425817345 -2.4128237370259535 -8.644361461492316 -15.888878768300822 3 5 -5
1324 1 -0.002607347467329574 -1.1703125028911507 -16.18464354251514 -9.847291601792849 4 4 -6
900 1 0.2360395662453292 -2.6946727983400516 -8.874849420788806 -14.58063542284048 3 5 -5
1447 2 0.01708354513893708 -2.968057504359638 -8.763812950248557 -8.867784836521782 4 4 -6
847 1 0.2379032002859983 -0.029120201641721757 -15.475329102042922 -13.824892183816365 4 4 -6
1963 2 0.05434958277585607 -13.022677567787342 -10.148772275131261 -3.9969397481568643 4 4 -6
2402 3 -0.7120570099763674 -11.94113456457761 -13.04774428053704 -2.4281895314135973 4 5 -6
1958 1 -0.03316559280988138 -13.493794394620865 -9.178047416329061 -6.105977062259108 4 4 -6
2468 2 0.3262233346868234 -11.398942771355692 -13.314375452142224 -3.0442381441866284 4 5 -6
1885 1 -0.01137001197786286 -14.018677001871717 -12.504505257645828 -5.622238930426172 4 4 -6
1887 2 0.05482380679584457 -13.285440139357544 -12.22254361823471 -4.9215993433837495 4 4 -6
1882 1 -0.03958694234915999 -14.883517064313898 -13.63403053009996 -5.526429678678057 4 4 -6
1884 1 4.156044950260479e-05 -13.917579155934519 -11.659052856080471 -6.714804389264513 4 4 -6
1964 2 0.03428347518839474 -11.801723212006914 -10.499444662902588 -6.339149315307245 4 4 -6
1962 2 0.03269473039633693 -12.775734032470773 -10.212332963994719 -8.080360543576951 4 4 -6
2407 1 -0.01646732307279228 -10.812423782621455 -15.72378552209462 -1.5275994815840697 4 5 -6
2399 2 0.05113501123113477 -13.5361199563258 -15.02649408141018 -1.731471832801053 4 4 -6
1960 1 -0.01979778354345389 -12.872554612168608 -10.376897658097784 -6.965997556062246 4 4 -6
2477 1 -0.002474979481607235 -9.483875157793548 -10.990804560274634 -2.4340466956465767 3 4 -6
2474 2 0.0685039344701137 -10.56405276671077 -10.946454465400514 -2.171860798087335 3 4 -6
1890 1 -0.09228113823623861 -10.9815801019076 -14.393344767881256 -6.623467283876139 2 4 -5
1891 2 0.02864377969592935 -10.851018083662895 -14.887645959204468 -5.645324055553693 2 4 -5
1889 1 -0.01068503862632232 -12.063769373331901 -14.942875627543584 -7.374899114444639 2 4 -5
2475 1 -0.01710133957001706 -9.264447018268774 -10.40196387792457 -3.676892687662309 3 4 -6
1954 1 -0.01444260075936413 -14.672249084291643 -12.000657706137282 -7.7869426477029915 4 4 -6
1888 2 0.02898403543829155 -12.612230149001315 -15.520739023098681 -6.7255589014780535 2 4 -5
1965 3 -0.7031729393113747 -9.369542091064059 -12.262932981231826 -6.334556868461476 2 4 -5
1375 1 0.2573328383711079 -10.300328838980654 -13.241950910318097 -7.101302421097505 2 4 -5
2400 1 0.01674630175612448 -13.258737338958676 -15.460866597554222 -2.6691882646955625 4 4 -6
1883 1 -0.01660993522605651 -15.08938009438653 -14.314101782068299 -4.165010452069696 4 4 -6
2405 1 -0.06594876370146366 -10.95383372187906 -14.503988790959365 -0.5382974702601103 4 5 -6
2403 1 0.2688595440231029 -11.565477369608507 -13.312921619891071 -0.9989575481639876 4 5 -6
1961 1 -0.01790259973246081 -13.310950045972955 -9.316898983678463 -4.754855847394557 4 4 -6
2410 2 0.02040607203513243 -10.679395851655974 -16.683955922222715 -0.8341981390294967 4 5 -6
2465 1 -0.04016839891806086 -15.268335423729507 -8.559859304854779 -1.7566049972908337 3 4 -7
2404 1 0.0004036626430342673 -11.9798425652333 -15.993942701493467 -2.591531181769176 4 4 -6
2409 2 0.02216028935612221 -10.10922024046355 -15.55950575491531 -2.446614159580646 4 5 -6
1886 1 -0.04604662944241843 -14.110497008127691 -15.569076929598475 -3.8085174296088815 4 4 -6
1952 1 0.2186714149375504 -15.888773074784334 -13.752686347637436 -6.4517563485689715 4 4 -6
1436 2 0.3390622632689103 -9.141961246012816 -12.564309170781033 -5.552733665573128 2 4 -5
2472 2 0.03613638140647882 -10.149243341023048 -10.388015702892414 -4.195386377197781 3 4 -6
2412 1 0.01114138941429738 -8.664182226489418 -12.210607442685426 -0.4420193760169449 3 4 -6
2479 1 -0.01629295624637608 -8.361426066884157 -11.479791212438908 -1.8260700890446377 3 4 -6
2988 3 -0.6561258534159015 -10.765792864360519 -9.047525725125524 -0.4021203945620031 4 5 -6
1435 1 -0.008773432427200283 -8.650334074956659 -9.193650477688125 -7.757534406833398 4 4 -6
1429 2 0.06856144596635474 -9.926902148321856 -9.74260197219013 -6.4849819388511385 4 4 -6
1818 1 0.2143825799529702 -13.873548067283213 -16.61414764333322 -4.6874341828523365 4 4 -6
2411 2 0.03710066373712245 -9.581953693385378 -11.598735571018077 -0.39942503555782227 3 4 -6
2987 2 0.3380221761688716 -11.07391064550692 -8.399174539757297 -1.0428830531875348 4 5 -6
2463 3 -0.6236285641668433 -15.460872166744688 -10.894777879052985 -2.74188847202336 3 4 -7
2467 2 0.08952233667230312 -12.24320486978368 -10.535302977067522 -0.6793510199459294 4 5 -6
1829 2 0.03550231986031199 -8.847571776836318 -16.10771127042208 -5.164643746379717 6 6 -6
1951 1 -0.0566164282899246 -15.807881759095464 -12.904821622426326 -7.507321567899609 4 4 -6
1953 2 0.07786339343926255 -14.622808737981574 -13.607875913796768 -3.392652242046589 4 4 -6
2462 1 0.2335868770990462 -15.953167095310667 -9.72802223855089 -1.8623486206350202 3 4 -7
2464 2 0.09419147672786905 -13.663854539426481 -11.707136298939002 -1.1020635309725784 4 5 -6
1432 1 -0.09371899190243246 -9.784321209530072 -8.813324873675281 -6.985517665894051 4 4 -6
2531 2 0.263024536129856 -16.16879132153231 -10.949061185015836 -3.389689980609242 3 4 -7
2470 2 0.04451952185462098 -13.153363351071969 -9.061529864194178 -1.8842728052444488 3 4 -7
1880 2 0.05933043245947904 -16.174682336548447 -14.745993066508955 -4.120631772723327 4 4 -6
1815 2 0.3155092505874242 -15.61518913107589 -16.13740879803473 -5.514866757488263 4 4 -6
2413 2 0.01502802345183107 -9.018741649657455 -13.237010024212443 -0.266516440607936 3 4 -6
2466 1 -0.0135730027744974 -13.087434991933634 -11.223677651784696 -0.3110665684442359 4 5 -6
2469 1 -0.009572266135312363 -13.911044107410925 -8.409245090470762 -2.377561471864495 3 4 -7
2528 2 0.09554789220739393 -16.543067101602627 -11.930069534624456 -0.9075402146665699 3 4 -7
2339 2 0.0279560871892604 -13.748151423384432 -16.5310247468077 -0.2995663652569845 3 5 -6
2337 3 -0.6131373087034134 -15.898091178213468 -16.614607743293774 -0.09863301463862219 3 5 -6
1840 2 0.006446367395672066 -3.5013034784010375 -15.963119717012432 -7.153614572197085 6 6 -6
1976 2 0.1072873949693899 -3.081914456013353 -10.116173718989502 -3.136011999274058 4 4 -6
1433 2 0.04381953974810113 -8.252876971175859 -10.176867426262167 -7.7601705074064355 4 4 -6
2037 1 -0.00843048707259467 -1.1839136782340107 -8.38446821140863 -3.8123263985435343 4 4 -6
2418 1 0.02207955181192834 -5.428478372841173 -15.697502793314548 -0.8928666243678034 4 5 -7
1903 1 -0.03364110999982224 -3.782212231728831 -15.697603176418681 -3.0706129451433584 4 4 -6
1846 2 0.00726819750736768 -0.38756091369739 -15.436015856540696 -3.839762252773819 1 5 -3
2427 1 0.01961966534381689 -0.48480255053605764 -11.820993421726016 -0.630729822872854 1 5 -3
1967 1 0.006091810200936751 -8.031705802700618 -10.276214306644611 -4.397082624624617 3 4 -6
1966 2 0.02490688197283761 -7.899279265395188 -9.897775343012409 -5.410079119870913 3 4 -6
1907 2 0.01110255792010558 -1.9711334126254447 -14.724088018804027 -4.584620980039275 4 4 -6
1983 1 -0.03772948354537457 -1.6641327503421999 -11.164250930411933 -6.4350135075241095 4 4 -6
2422 2 0.02972388983001912 -2.6834648795550597 -15.854507594201548 -3.1804175405087487 4 4 -6
1973 2 0.03552598714758142 -4.8145988635058545 -11.570806186327568 -4.391968050844544 3 4 -6
2420 1 0.006002817801327706 -4.357820666825757 -15.131095035863966 -1.681268865700366 4 5 -7
1838 1 -0.009975992243899813 -4.605220726352171 -16.206300879374325 -6.792777858785243 6 6 -6
1971 2 0.05181929731134016 -6.727945259769451 -11.947812384394982 -6.075998529192282 4 4 -6
1897 2 0.2607129926624232 -6.0793725879694245 -14.770112874877368 -3.3944751653775853 4 4 -6
1834 1 -0.01045667797281111 -7.150503453935374 -16.05147750780101 -6.957993603116956 6 6 -6
1896 2 0.01811583389928648 -8.11857553122612 -15.530230916587916 -7.135369169068863 6 6 -6
1984 2 0.02125773414960942 -2.123094451877195 -12.895005562778648 -7.786013435868622 4 4 -6
1906 1 -0.01885928900638649 -2.8601599680207603 -14.413802453868701 -5.140626112298806 4 4 -6
1902 1 -0.06261637731087691 -3.9599029452407932 -14.761159075163174 -4.406117448378805 4 4 -6
1900 1 -0.02339215765205119 -4.054044475960161 -12.904613466576555 -6.699907594890363 4 4 -6
1980 1 0.004865931291521453 -1.4765365273103277 -10.218673988031602 -7.546482561351426 4 4 -6
1982 1 0.2619223764144703 -1.6381622546623738 -10.434168543444542 -5.268515577291281 4 4 -6
2485 3 -0.5519218582645445 -6.5199934452892006 -9.817846494806615 -0.1666696784576474 3 4 -6
2426 1 0.003870027345519441 -0.49894003949191923 -13.249423886926824 -0.2828186487239171 1 5 -3
1444 1 -0.008966974066538954 -6.269418656280645 -11.963636001827785 -8.053559105469782 4 4 -6
1443 1 -0.02192279132719429 -6.102279661752692 -10.603662524688994 -8.156812726537163 4 4 -6
1892 2 0.05402867455623764 -7.184000978494537 -13.772399915030187 -6.720031144391661 4 4 -6
1895 2 0.2955479446335243 -5.505373689549459 -12.625815326268764 -2.234817479809847 3 4 -6
1981 3 -0.6697084837870731 -1.7599351657769948 -11.19487108866886 -3.9850079398026743 4 4 -6
2424 1 -0.01351930770192894 -1.622805281826076 -10.787085306060801 -0.5508699070167494 3 4 -6
2488 2 0.2815244374069768 -2.1286553169830937 -11.977299481102595 -4.3538703985543 4 4 -6
1894 3 -0.5984101873197092 -6.538951796709084 -14.187104236628043 -3.99064789296593 4 4 -6
1977 2 0.01520029741117016 -4.096755760292786 -12.443516877428719 -7.7625030768554 4 4 -6
1837 1 -0.02219329959181166 -5.770971635346001 -15.790290386208309 -7.385345814783043 6 6 -6
2419 1 -0.003165311342445586 -3.5846482705160936 -14.04435224342104 -1.1782366051051896 4 5 -7
1898 1 -0.02867018186878578 -5.1908487950269135 -13.379718130471893 -6.008933759528963 4 4 -6
1985 1 -0.01049575967527943 -1.6750952665403251 -12.719763706299569 -6.811582339124472 4 4 -6
1978 1 0.01050929303352954 -1.641133040968111 -8.774883420424057 -7.483497997256881 4 4 -6
1974 1 0.02181746449140815 -5.003347396985401 -9.436038035042797 -3.9199542832959087 4 4 -6
1979 1 -0.01345620367819203 -1.3074854356418604 -9.022084403359539 -5.138461063170529 4 4 -6
2423 2 0.04397818729231302 -2.6580239323860333 -11.130892196921694 -0.8103057634476656 3 4 -6
1968 2 0.01086113331650897 -5.849248985068866 -10.650247340172797 -5.443866630542285 3 4 -6
1899 1 0.1962764363173792 -5.201239267344108 -14.18904686902461 -4.821995416450625 4 4 -6
1975 1 -0.01312940307281834 -3.6868992806685217 -9.209524046209424 -3.4030626455848645 4 4 -6
1893 1 -0.004591107379520214 -6.438086159372809 -12.860688561038437 -6.676947339559335 4 4 -6
1970 1 -0.01267562970011686 -5.561669395077147 -10.821822393324442 -4.442314285609647 3 4 -6
2421 2 0.02889658207137948 -2.862863166097996 -13.924020456377523 -1.9269344725559194 4 5 -7
2487 2 0.06139729009442715 -0.8888837285741861 -9.188575052453782 -3.0910731866783223 4 4 -6
2480 1 0.2625611535612168 -7.023530052828309 -11.39368606533149 -2.3692439917620374 3 4 -6
1986 2 0.03482431280076097 -0.6738576440845647 -13.328668353902252 -6.4443676253142055 4 4 -6
2484 3 -0.5673667027367191 -5.708056874544347 -11.96335059225011 -1.6404759076309934 3 4 -6
1972 2 0.00700122461977584 -6.090148053880028 -9.844873592745502 -7.291861020906966 4 4 -6
1905 1 -0.02367111625126458 -2.847933865279122 -13.46180058104613 -6.17671774169705 4 4 -6
2489 2 0.02834016157725462 -1.4918003978210423 -9.861145649303833 -1.3767744893256866 3 4 -6
1969 1 -0.02656015973981943 -6.952142201577994 -10.756331562046881 -3.6944674198890386 3 4 -6
2025 2 0.0130045969195233 -6.740455331285753 -8.392375561755633 -4.9146662259635585 4 4 -6
1326 2 0.01253209483954852 -0.10187892586714202 -15.621678368503344 -8.116308467585036 4 4 -6
2351 2 0.06490462534701408 -6.021090641797719 -16.61189211846466 -1.3728141653940236 4 5 -7
1901 2 0.01038575159986336 -5.6105425779255444 -15.179620364252289 -8.298525626056914 6 6 -6
2483 2 0.2459374556747342 -7.240780140751637 -9.162647791485309 -0.3696070201674279 3 4 -6
2416 2 0.04965731669129467 -3.187055429101826 -12.790392723547388 -0.0012834660190006865 4 5 -7
1387 2 0.01069807069927389 -1.7311769983747765 -14.844362476032982 -8.215047447337868 4 4 -6
2980 1 -0.02234879256861369 -15.352266017326702 -9.861913626191377 3.1700426381147047 4 5 -6
3520 1 -0.003844961321677158 -10.319005856708628 -9.815185308146297 4.047942332170255 4 5 -6
3519 1 -0.06815402919299662 -11.358021940710858 -11.092347994729812 5.665555168382165 4 5 -6
3518 1 -0.01296575415523627 -11.095412688702604 -10.902350162259633 4.280616066998115 4 5 -6
2982 1 0.003337414022256329 -14.428107708989605 -8.97978333120841 2.559388089762166 4 5 -6
3456 2 0.007517929671280349 -11.007437690144418 -11.661784355756456 3.4657451719777366 4 5 -6
2918 2 0.01115231127075085 -13.193560113277051 -12.365401227150208 3.797188235452034 4 5 -6
2984 1 -0.06353077682044707 -13.792142634265051 -10.822310714573844 0.9833734111465581 4 5 -6
2920 2 0.02269536345464315 -12.680803456668334 -12.271517972513653 2.020602469159919 4 5 -6
2983 1 -0.01164223636562221 -13.463434629726908 -9.538975178993876 1.617725218289577 4 5 -6
2917 1 -0.0158418226905999 -13.567692291231024 -13.394611529816665 3.6818072486468 4 5 -6
2916 1 -0.01447228322294636 -14.98940292307148 -13.682869519751142 3.5878297888495205 4 5 -6
2914 1 0.2783126098761509 -14.788413072838258 -11.622522235698234 1.4308364597798493 4 5 -6
2979 1 -0.05174877459267703 -15.271825983046591 -11.187233047452668 2.6751525781001146 4 5 -6
3452 1 -0.01104702542803203 -13.538032403697532 -14.311102811876783 6.426800288803901 4 5 -6
2989 1 -0.01793604990834044 -10.051679251585602 -9.758809900113858 2.484266926221477 4 5 -6
2911 3 -0.6521342275716778 -15.26547735205711 -12.877370363135983 0.75640890078279 4 5 -6
2922 1 -0.00177553188038343 -11.223766248149 -14.051118468498016 1.6842207984325346 4 5 -6
2921 1 -0.009192765383403582 -11.997699050292695 -12.87463034224939 1.3576307443140847 4 5 -6
3454 2 0.04612505568649866 -12.698639597362526 -15.065133895474114 6.259540635148386 4 5 -6
2919 1 0.01508988439179295 -12.857318710120023 -14.61741314780355 3.3971845413270887 4 5 -6
2923 1 -0.050843371158415 -11.33903683748283 -14.409479922636601 3.192093633999258 4 5 -6
2990 2 0.01898962840942409 -9.580295425511427 -10.783708016940409 2.2176259491737205 4 5 -6
2913 1 0.002727677545244892 -15.926351576383496 -12.421705869519128 3.4204749385470268 4 5 -6
2925 2 0.01129302362473292 -10.999441275385742 -13.503980272098778 3.711010343424719 4 5 -6
3513 2 0.005923155497660294 -15.774279076807028 -9.677279534530456 4.158932498054978 4 5 -6
2912 1 0.2346585970239266 -15.655176647587204 -14.951378889707357 3.688000065301999 4 5 -6
3450 1 -0.048414044087933 -14.788373577400199 -14.792959896858392 6.956107584137434 4 5 -6
3448 2 0.005324652590560912 -16.056077376795045 -12.10103212480169 4.446541121064313 4 5 -6
2406 1 -0.02219688016929331 -10.668724709604245 -14.924782633819458 0.7444756404862555 4 5 -6
2924 2 0.06713126742580389 -10.640955072730502 -15.323039095029658 3.5308737469832434 4 5 -6
3458 2 0.0206358009058567 -10.982414451427713 -13.283458241318252 5.51444071277357 4 5 -6
2841 1 -0.007183555360170426 -14.922161067557415 -16.10344516791564 3.5857279438551757 4 5 -6
2986 2 0.04295911008471269 -11.152180546897533 -9.582281956695569 2.110134648470329 4 5 -6
2842 1 -0.01304945271510169 -13.52189010725571 -15.8615903248891 3.4741569081090455 4 5 -6
3461 2 0.308664054546881 -8.408443467850827 -9.267999200361787 8.109088586228024 2 5 -7
3447 1 -0.05198584448711037 -15.139683817390205 -12.497276452369958 7.552169607160937 4 5 -6
4048 3 -0.612868969178621 -11.672690988440893 -10.509750405323993 8.226313609591687 4 5 -6
3521 1 0.2699965197990429 -11.280098704518325 -10.23439445567982 6.803847478239103 4 5 -6
3457 1 -0.02555850325934538 -11.536859383741417 -12.600150749337232 6.102973622108994 4 5 -6
3453 1 -0.007840908001530672 -13.083694003496126 -13.007656109584866 6.233930116686654 4 5 -6
3446 1 0.2434280954219435 -15.750790890091439 -13.858158542724212 7.39994461532033 4 5 -6
2926 2 0.02025134589209123 -9.38865880143456 -13.221909851033873 4.349948610421096 3 5 -6
2927 2 0.01194344202605404 -8.524453458631397 -13.65252004679821 1.7642987931557652 3 4 -6
3571 2 0.01270079157754038 -14.449835716060477 -8.544988989394112 5.677150945488984 4 5 -7
3523 1 -0.0649730907739772 -10.713552042954436 -9.036439207091092 6.31752799783897 4 5 -6
2408 2 0.02466391009773978 -10.288601474678249 -15.85029293574713 1.1263735942481619 4 5 -6
3451 1 -0.02055733633832475 -13.996586633586098 -12.04742896686115 6.975913724380488 4 5 -6
2928 1 -0.04159752836954126 -8.587682004896 -12.591006785664671 4.5890896827613465 3 5 -6
3989 2 0.02998086005775393 -11.027387974407562 -12.43541786738335 7.16257292520017 4 5 -6
3449 1 -0.0006172561271695787 -15.139612898135194 -16.38743806231664 7.251398284440768 4 5 -6
3511 2 0.0861216682573462 -16.149659468275228 -16.491308348774112 7.542574465426285 4 5 -6
2985 2 0.07990569252690127 -12.448953310285352 -9.187851803347867 1.118588800645715 4 5 -6
2996 2 0.03162572022352621 -8.819471846936061 -11.772810050639027 5.276865176237381 3 5 -6
2850 2 0.2594721356208058 -8.872680587305725 -16.23233971816217 2.074205596271883 4 5 -7
3522 1 -0.007100249876288069 -10.38268697077139 -8.76464331537828 4.950586737251084 4 5 -6
3398 2 0.06428194353786559 -10.264755203649873 -16.56017516546154 8.227763357946484 3 5 -6
2992 1 -0.03991569167832078 -9.389461268521654 -8.431339033717315 1.7892268185176339 4 5 -6
3517 2 0.03436420499652727 -13.856782283672286 -11.015317570600052 6.923220417323358 4 5 -6
4049 2 0.2645255328411666 -11.797593793441377 -11.47128679280871 8.181157714882172 4 5 -6
3466 1 0.01710725261278725 -8.403068172449933 -15.748865909930947 7.168460479710515 3 5 -6
2401 1 -0.04065364515907668 -12.22693964165422 -12.597268603989821 0.038066952511228005 4 5 -6
2915 2 0.3285953738558588 -14.798677463585646 -13.02895856682496 0.010409180769162057 4 5 -6
2350 2 0.02167306403520823 -7.4528211078165665 -15.94317710985748 0.11731492087341085 4 5 -7
2425 2 0.07199510045655405 -1.4799654688766173 -13.65242590328068 0.06017342453808697 1 5 -3
2929 1 -0.01319452422116288 -8.134042288560183 -12.607943772509266 2.0279766346778887 3 4 -6
3935 1 -0.01695425958984094 -3.9780289131292412 -16.53613722154438 8.291322853903477 2 5 -7
3006 2 0.04378090219840264 -5.3367683635121255 -8.45036359286285 1.5885680892346035 3 4 -6
3004 2 0.006427005678599794 -5.408109667611545 -8.537283835461418 3.471274354407642 3 4 -6