LAMMPS data file via write_data, version 2 Aug 2023, timestep = 2140000, units = real

2926 atoms
3 atom types

-16.71546325737322 16.71546325737322 xlo xhi
-16.71546325737322 16.71546325737322 ylo yhi
-16.71546325737322 16.71546325737322 zlo zhi

Masses

1 12
2 1.008
3 15.999

Atoms # charge

254 1 0.02498536867858803 -11.469897837927014 -10.102625852489284 -10.55222117851128 4 5 -6
252 1 0.05333397575353543 -12.213999598082356 -11.067312657867706 -9.814503561960066 4 6 -5
255 1 -0.03498838342287643 -13.130569678888554 -11.97702997897459 -9.266746714343126 4 6 -5
257 1 -0.06698947778490114 -10.305838546122999 -10.258160391332334 -11.463733259783165 4 5 -6
256 1 0.3146328029198547 -14.487671062397013 -11.878354108418378 -10.211486150173691 4 6 -5
3788 1 -0.02415233128654718 -10.347146028994848 -13.756450181389807 -13.531819716247082 5 6 -6
3847 1 -0.03609458724554934 -15.322599375495411 -13.163374176846125 -10.222040579459682 4 6 -5
3898 3 -0.4587430083373512 -14.60526072397595 -10.955885162157614 -11.09526500697456 4 6 -5
3791 1 0.1778204365005578 -9.743243888533893 -13.621116040403992 -12.108351755187273 5 6 -6
3792 3 -0.4749903134467242 -10.02664207635267 -14.35541612197431 -10.566963602593672 5 6 -6
3852 2 0.01564225428601833 -10.736819237188849 -15.89664952297147 -13.586338421684761 5 6 -6
3854 1 -0.01061791881937315 -11.507328863549125 -14.95090853849539 -13.708719765227714 5 6 -6
3317 3 -0.4870831245602263 -14.518126679056982 -14.021411360858085 -15.244765070523918 5 6 -6
3850 2 0.05265863459491231 -12.62579539618321 -14.818387886431656 -13.139117886283845 5 6 -6
3309 1 0.2175627520986811 -15.857078919037932 -14.572300198792446 -15.761121976629807 5 6 -6
3848 1 0.0117023258052603 -16.35797165906115 -13.46277990782709 -10.964195781674558 4 6 -5
183 1 -0.0112231643611216 -14.521515671963545 -14.102339639856934 -9.366792725614284 4 6 -5
3193 2 0.01739440289837383 -8.902642743512214 -16.082539460314504 -13.278005059144185 4 5 -6
3789 1 -0.009694016942946328 -10.173839047548745 -12.884591987482683 -14.686074875131421 5 6 -6
810 3 -0.4339147585601051 -9.74406130678124 -8.480115199098895 -13.56578681981071 4 5 -6
3786 2 0.01843556163227865 -9.923004388514967 -15.258590015435615 -15.53059073726769 5 6 -6
3851 1 -0.005856623957519118 -12.129549766101354 -15.070451336053944 -15.121927660375173 5 6 -6
3319 1 0.1691932631838054 -13.29908248712176 -14.943017029571456 -16.01723896274252 5 6 -6
184 1 0.01036755704726451 -13.393447588454361 -14.073734751202847 -8.68192114686138 4 6 -5
260 2 0.05041864530591397 -9.942278428800005 -11.311027071329114 -11.224691540545015 4 5 -6
3787 2 0.03232045557732835 -11.027281860029417 -12.608896931116764 -15.439260907958793 5 6 -6
126 2 0.04117394215555155 -12.109586996137683 -15.673215704756498 -9.117942469341894 5 6 -6
3795 1 -0.02226149766650748 -8.507505405286839 -13.301386724831785 -12.353155136076946 5 6 -6
3971 1 0.004905750488484927 -15.164693513767173 -9.360424290207005 -16.496772602100656 1 6 -3
68 1 0.25434853781194 -9.901848627413186 -15.789592422281691 -10.7020015284252 5 6 -6
307 1 0.1696568805856096 -9.730543873097153 -9.3231789258574 -12.285447514454878 4 5 -6
186 2 0.03013166120236635 -14.929389461151962 -15.045020948701568 -9.013984653146741 4 6 -5
3853 1 -0.03390740076190005 -10.942972289741068 -15.140419960044303 -15.791275875339798 5 6 -6
3974 1 -0.002932871720029137 -14.799993158673592 -10.70734954726638 -15.715921392870525 1 6 -3
3793 1 0.002962734055095746 -9.152743629971823 -11.918601385032005 -14.26082596436653 5 6 -6
129 2 0.04031908423561067 -8.915075091599784 -11.096355921986126 -15.066491225360371 5 6 -6
3973 2 0.0928439163982325 -14.985598613789524 -12.098945686196519 -14.292553771610606 3 5 -6
253 1 0.003262497610806088 -11.645749662170056 -8.607019206556558 -10.519094849845207 4 5 -6
3970 2 0.05366664565344798 -15.816739279384564 -10.315935049037833 -13.861658698279859 3 5 -6
3304 2 0.05387209443649456 -16.132814365922 -13.350471333760217 -13.367572293578323 5 6 -6
3972 1 -0.02508901976421164 -15.350686157845972 -11.153901427499937 -14.41566798817871 3 5 -6
3183 2 0.03147798439640138 -15.736879601356515 -16.535483940488156 -13.646366742247618 3 6 -5
749 1 -0.01056714851119646 -9.245223338531872 -9.182197672462857 -8.862730722445622 4 5 -6
261 1 -0.01205651503008421 -8.44794990743576 -8.812783421805566 -9.911117487123287 4 5 -6
3975 1 0.05696468020461735 -14.011121684226575 -11.696936108409183 -16.386064688220266 1 6 -3
3810 1 -0.01808754318811251 -1.4041050600288107 -12.227101782231523 -16.575026476225165 6 6 -5
3794 1 -0.0209177537916998 -8.191093050035121 -12.433938930687214 -13.484354671437181 5 6 -6
3248 2 0.01485406618743278 -6.946412871032715 -16.541795347581623 -14.924285771016875 3 6 -5
3715 1 -0.02540314329980954 -7.954599211918268 -16.116374659736525 -12.798068129081853 4 5 -6
4011 2 0.02114973044184011 -0.01840291927871118 -9.544228992907295 -13.613841441706583 3 6 -5
3801 2 0.03560134931342719 -6.872315229033204 -13.432703417135128 -10.844130957051487 5 6 -6
195 1 -0.001367441958821498 -7.617127763220531 -10.165541646699491 -10.33748322343759 4 5 -6
3807 1 -0.01801741481169271 -4.019398663681717 -12.094381571836601 -16.701292760808922 6 6 -5
265 1 0.002550726868125699 -6.357031809908005 -9.839936329980068 -9.617145267546942 1 6 -3
826 2 0.05199619258717465 -1.566275319441001 -8.968227925191446 -8.711843475841466 1 6 -3
3798 1 -0.02138456772698166 -7.014547981530193 -13.889245272490072 -11.763302036608481 5 6 -6
763 1 -0.06164155744973277 -5.256845891473034 -10.457461139491047 -8.578339627934305 1 6 -3
3797 2 0.01004691968612919 -6.102736197662866 -13.631351952513977 -12.43404308880897 5 6 -6
3717 1 0.008682932780396753 -6.949641256218751 -15.468535029599252 -11.798570635936024 4 5 -6
3718 1 -0.003332190938470384 -6.218631058084746 -16.269306041734392 -10.756870493655162 4 5 -6
3659 2 0.0385782587536346 -2.070084109033519 -15.411655172462371 -8.855104486499618 4 5 -6
75 2 0.03547188808810949 -2.794862344550603 -13.548792675301504 -10.060334275635057 4 5 -6
77 1 -0.000573602072567618 -4.113578613894719 -15.228526337648523 -9.715437519954294 4 5 -6
76 1 -0.03819782081043872 -3.625050619505926 -14.229617050657641 -10.519789702390652 4 5 -6
74 2 0.01783097683140029 -4.420902248236828 -14.027059219721142 -11.325049614035867 4 5 -6
3729 2 0.01739581382233403 -3.430906167976172 -14.904537246729841 -15.065113518530534 0 7 -2
79 1 -0.004140550883898437 -5.63662748805098 -15.603931753938712 -9.591616504908925 4 5 -6
281 2 0.0316879861312014 -0.7798940696341022 -8.899705687679374 -11.497496894903632 1 6 -3
3808 1 -0.002805060893806596 -0.9513031496697995 -13.461189228864797 -16.07533738218794 6 6 -5
3730 1 -0.005612095795326066 -0.3941232807731496 -14.628318266872231 -15.355783754324792 0 7 -2
762 1 -0.05377116958049892 -3.7537841851949323 -8.626985839721623 -8.706519736222878 1 6 -3
756 1 -0.01354791212603858 -5.892021047575601 -8.431233368597368 -9.723902595242023 1 6 -3
3803 2 0.01647881406755983 -4.901142341763405 -11.848954826092518 -16.114927120293693 6 6 -5
139 2 0.03990580480864549 -0.128166809136066 -13.918973925568475 -9.80634819698561 1 6 -3
3726 1 -0.03479961359621744 -2.8471405762827695 -15.72462249172073 -15.652045898425243 0 7 -2
3723 1 0.01276131409212332 -3.2529491884580306 -15.613082574616186 -8.7780502560084 4 5 -6
3796 2 0.01848488173271329 -7.164700248806672 -11.987119491312894 -13.53549999614514 5 6 -6
3728 1 0.001080479130181642 -1.3314881526292321 -15.764251772798975 -15.552684825885107 0 7 -2
765 1 0.2385653364552525 -4.071563179756618 -9.822476636463366 -8.383597467210667 1 6 -3
82 1 0.005700980947812948 -6.094498848250662 -15.204001784965488 -8.397714542822504 4 5 -6
3868 2 0.01364357342316144 -0.8741923286498978 -10.895197661729007 -16.526108893457096 6 6 -5
1690 1 -0.03339916126178807 -9.382572967916936 -9.238462307700681 -1.897405579636307 2 6 -2
1627 1 0.3095951446207303 -9.526788427941431 -9.318487884673099 -3.510379895430436 2 6 -2
194 1 0.05965146115010246 -8.642741892517163 -10.479590988182355 -5.629467757528791 4 5 -6
1226 3 -0.4203617055592995 -9.499343398525957 -13.425692423989647 -4.917976432613702 2 6 -2
192 1 0.02262416611692319 -9.139550156277057 -10.335273131388526 -6.647701530058181 4 5 -6
1231 1 -0.07115232045445957 -8.905441223013762 -14.597087146300805 -2.7601925593462835 2 6 -2
1686 1 0.01022325692791511 -8.442541406589521 -9.993108567958291 -1.2902027198648978 2 6 -2
1227 1 -0.007899274369626917 -11.17254695669419 -15.94749235553317 -3.3879888204996718 2 6 -2
678 1 0.1751472266220291 -15.335100035521226 -9.130679959055023 -6.352950636128578 2 6 -3
1228 1 0.01859076262492205 -10.30230258641557 -15.057793463867698 -2.195838126120184 2 6 -2
1222 1 0.1216119370159533 -15.773089502551505 -10.372818004079415 -6.359446478115962 2 6 -3
1624 1 -0.04915733733280037 -8.483318942097789 -10.118528201684189 -4.1759914651857954 2 6 -2
1160 2 0.01861931881943821 -8.59718042048614 -16.45303221991633 -1.865970036261976 2 6 -2
626 3 -0.4590551839509769 -13.848599498145733 -8.683418828110675 -6.053978203512485 4 5 -6
1230 1 0.2871000556422407 -8.700961934617762 -13.766599600813866 -3.879159540366552 2 6 -2
1223 1 0.2203997904281198 -12.462513447199472 -16.334090525636842 -3.0640889267614093 2 6 -2
1225 2 0.05569262578318983 -10.684344753224734 -14.09847503006638 -1.783013873385483 2 6 -2
1221 3 -0.4544771921875398 -12.893687644401792 -15.819521226196297 -1.707932118377027 2 6 -2
1295 1 -0.005700395684418203 -10.72589081591762 -16.642645943748796 -4.697921510308478 2 6 -2
187 2 0.04987723804793667 -13.291835826096925 -15.143201556187144 -6.444691347727857 5 6 -6
1217 3 -0.420186594843056 -15.906964744661973 -11.954341461813428 -6.254434917488961 2 6 -3
188 1 0.007852143938014648 -12.855961037065216 -14.788542641459822 -7.451034598371535 5 6 -6
1614 2 0.04485384381968634 -15.341522536043684 -13.88483361352052 -1.7169597284956242 4 6 -5
189 1 -0.01261796686155448 -12.137572145950584 -15.795616579915928 -8.054796886756321 5 6 -6
685 1 -0.01523643812706649 -11.259807260893863 -8.776768056370704 -7.4624189037420745 4 5 -6
1676 1 0.0002585927599981046 -16.15682213250906 -13.216647333425348 -3.5175054634033454 4 6 -5
1240 2 0.05277995906283119 -12.48235746349734 -9.431321771721256 -2.2545811448364654 3 5 -6
1239 1 0.02608106761574481 -10.535471152765679 -8.818139166010507 -1.2752585845877615 3 5 -6
259 2 0.062395753253287 -12.057194450525918 -12.690135888363436 -7.4553028792448615 4 6 -5
1229 2 0.04196943069273811 -10.220324573579452 -15.795726949347717 -1.3042260753895598 2 6 -2
258 1 0.01594786564932194 -12.741998085892398 -12.858191408767018 -8.223306151178448 4 6 -5
1237 1 0.01412152888495743 -11.904324598275684 -8.614541787906933 -1.7672848558924574 3 5 -6
1803 2 0.06725624352446462 -15.482067891940442 -12.431313945613452 -3.7876785792694956 2 6 -2
1613 1 -0.01442748326284128 -16.354611124683654 -13.862779296920499 -2.214695738438293 4 6 -5
688 2 0.1313243367425651 -12.197241056010853 -9.013590487306212 -6.625709977705178 4 5 -6
686 1 0.01722781461953285 -9.98332607936231 -9.50583762207738 -7.784567145028853 4 5 -6
746 1 -0.06399303271690467 -12.615586159663547 -8.412363133018129 -8.182231409054477 4 5 -6
1163 1 -0.02613967371453727 -5.554153117970995 -16.032341229111978 -1.8821030109418906 2 6 -3
1832 2 0.02591114133544107 -0.26668799248781805 -8.637741948823582 -0.26719528875456583 2 6 -3
1828 1 0.01599132925170026 -0.0044902287749811805 -8.687141163540865 -2.6467402225805605 2 6 -3
1823 2 0.02225230518707951 -4.053265027816967 -8.617889370501652 -4.904124688516553 2 6 -3
1684 1 -0.03543735739409731 -7.594958404428957 -10.741438690674764 -1.9674148604664166 2 6 -2
1248 1 -0.04344640156531653 -0.6477956139657247 -12.57258569949963 -3.8588538991816446 2 6 -3
3727 1 0.01156157911451381 -3.9281774275119825 -16.30051095144421 -7.517017319781899 4 5 -6
1830 1 -0.02280277445957482 -0.5847164768934531 -9.037830458092117 -1.1875333523419214 2 6 -3
1764 1 -0.02724549614041578 -2.493552865781715 -9.364963350160062 -2.549939155453199 2 6 -3
1622 1 0.0138092636391162 -7.560189991306861 -10.821553209683959 -3.491890153963233 2 6 -2
1313 2 0.05412778972209433 -1.474158341208539 -8.988389801718766 -6.338197146220218 2 6 -3
1825 1 0.0243933399013471 -2.1446985383385875 -8.403872270723465 -3.6120907412281698 2 6 -3
696 1 -0.05469890170331326 -4.6101420996653335 -12.220156147082669 -6.986590975965733 2 6 -3
690 1 0.04464449343651308 -3.8509973388003917 -15.849862717381752 -6.253444988536714 2 6 -3
1175 1 -0.04917910265579697 -0.6036420072993139 -14.717132962443783 -2.6457063325653487 2 6 -3
1244 2 0.02273408095405893 -3.5747226097710008 -11.929608859292209 -4.5489266712486325 2 6 -3
1769 2 0.0653733891043744 -2.550731366169494 -11.514084271145816 -0.12772118844700334 2 6 -3
1161 1 -0.01573332664398557 -6.476899904216335 -13.733198129909967 -2.6102662129711454 2 6 -2
694 1 0.002030093483482013 -4.830279191446353 -13.472784381624114 -6.748227799246825 2 6 -3
1171 1 0.01224938315195035 -1.1905069991348267 -16.268579261461475 -2.506046627619522 2 6 -3
1747 2 0.01546086677940456 -6.948159025116409 -11.440757988159794 -1.3633240655439027 2 6 -2
1162 1 0.001733178697276235 -6.479517569507892 -15.16339889790165 -2.609756168242735 2 6 -2
699 1 0.2473129181272519 -3.2573873234222948 -11.810000402512784 -6.834413588970879 2 6 -3
1159 1 -0.01471981857034926 -7.902457305424281 -15.602745948036407 -2.2401572682249564 2 6 -2
1086 2 0.02658899799779693 -6.571686587560768 -11.624005518883141 -5.363001890569622 2 6 -2
693 1 -0.03985441411831885 -3.9775552789163604 -14.249503254547795 -6.048361826901929 2 6 -3
1683 2 0.007186542829082123 -5.706115752305891 -11.498224799579031 -3.5830900431411457 2 6 -2
83 1 0.01650443190737351 -6.067871430493283 -14.397525892546103 -7.225596165464241 4 5 -6
1767 1 -0.04814930847652248 -1.8137518267201407 -10.726882952838272 -0.025289212316217363 2 6 -3
1247 1 0.2778608893092995 -1.0649064188341621 -13.997103247593527 -3.7990905821047782 2 6 -3
1249 2 0.0193726732754686 -1.650830141483568 -10.792511412863544 -3.914538768989005 2 6 -3
208 2 0.02638857812340532 -6.58214012085311 -12.033693817264918 -7.686634167394436 2 6 -3
695 1 0.1842761168834585 -2.997637647860305 -13.59575221729271 -5.539228263455121 2 6 -3
700 3 -0.5172759647743805 -2.9584438100042583 -10.525798114940445 -7.541547155289771 2 6 -3
1232 1 -0.04084518321351026 -7.351458814555 -13.108636245174633 -3.658738620148468 2 6 -2
1158 1 -0.01586121318710575 -6.6981830161771985 -11.802470757513444 -4.2140726857329325 2 6 -2
1245 3 -0.4968310702112767 -1.74889426923715 -14.58258701182215 -4.891513843147592 2 6 -3
698 1 -0.08299816824615425 -2.7984966390591888 -12.148433957633122 -5.346391563795187 2 6 -3
1087 2 0.02017601477318726 -5.60213047155356 -12.974365114344016 -2.9230365004161314 2 6 -2
1172 2 0.01589490015570618 -3.1200026715057056 -10.329997375668402 -2.6668353120626245 2 6 -3
1250 1 0.002831572812810899 -1.3444248671747785 -11.578084446599501 -4.71025224143331 2 6 -3
1766 1 0.005550175709556116 -1.846285329914984 -9.712663716846663 -1.2901630179322487 2 6 -3
1253 2 0.04521848870421136 -0.9143577708746393 -11.421942897566897 -5.689860311826227 2 6 -3
629 2 0.01864836072449674 -5.660259442875333 -15.625301096489967 -0.8449849874152979 2 6 -3
697 1 0.02116024428768846 -5.657734775470191 -11.531084266246094 -7.785351759493232 2 6 -3
1243 2 0.009542277464858653 -0.5596283027793969 -16.243905585438043 -1.5127762991719516 2 6 -3
1827 1 -0.01263759914713232 -0.5642369459716455 -8.483393901921712 -3.8100630113535177 2 6 -3
1770 2 0.04747288617949252 -0.9885624198682692 -11.487112940408611 -0.06679770883183168 2 6 -3
2314 1 -0.00837987085121644 -15.951169887282239 -13.680704385582477 6.000269503982381 2 6 -2
2246 1 -0.02391957835385046 -15.120124156816699 -14.79701180846215 7.055621014477273 2 6 -2
2243 2 0.01296047316801151 -14.242604768704355 -14.917830930750316 6.475795510472011 2 6 -2
2319 1 -0.005542743867219146 -15.534092522061746 -12.141506914248907 4.392049041506204 2 6 -2
2323 1 0.004890987626004175 -13.166295263423414 -9.64317431578104 4.131531927662583 4 5 -6
4028 1 -0.01369218493642789 -12.513458343554763 -10.679941850008795 6.516103394720212 4 4 -6
4026 2 0.03399854493346353 -12.379616628497327 -11.717666898962321 6.3448296799369235 4 4 -6
2320 1 -0.02383261950148894 -14.692012417910773 -9.667259412048788 4.573845168133346 4 5 -6
2317 1 -0.0001303062704400143 -15.131426367621065 -10.898736285778185 4.416022876064697 2 6 -2
2325 1 0.002413302867633176 -12.194257760916278 -10.11744259161182 5.1314294359372035 4 5 -6
2660 2 0.03567451289289836 -14.305111843804992 -16.616561804222936 2.7007476844397993 2 6 -3
4027 1 0.01376480387476223 -12.573400533221161 -9.83076627014112 7.704541317885417 4 4 -6
2321 2 0.01938733049346457 -15.167855359368216 -8.676616764612485 4.673032407858247 4 5 -6
1799 1 0.002792764190473508 -15.892944844721455 -12.698125511775803 7.119732943618454 2 6 -2
2266 1 -0.02082562156868888 -10.891767157043597 -16.371296158154014 5.576060457704035 2 6 -3
2316 1 -0.003735189801049123 -16.099574526745975 -13.389395271644846 4.699700750512603 2 6 -2
2267 2 0.05334182024388605 -10.26699890598014 -16.40300882521063 4.538476457112987 2 6 -3
2327 1 -0.01929047322828076 -10.808873300628877 -9.762586972196159 4.742171996613717 4 5 -6
1748 2 0.01680905808489835 -9.249194336706013 -11.253251112486675 0.4683127805160668 2 6 -2
2324 2 0.04510224564796593 -9.901925749565779 -10.149286326843844 5.135339237851541 4 5 -6
3509 3 -0.4402046440035506 -8.970195164555015 -11.079625789164997 7.967683649615113 4 5 -6
2260 2 0.01243352938833382 -11.580153731561666 -16.707065691013053 8.009350745983546 2 6 -3
2262 1 -0.0204853119402884 -10.516702897232381 -16.242466621141574 7.822110807095219 2 6 -3
2248 1 -0.002436676231521771 -16.262173680259295 -15.76797381298291 7.156850696371707 2 6 -2
2256 1 0.01122740015811131 -16.032593851546988 -16.32758220360855 1.658027718687945 2 6 -2
2396 1 -0.0006925836337996257 -10.615142593398614 -8.384423408512493 4.390451183981053 4 5 -6
3440 1 -0.06114143918612278 -9.425982653912888 -8.625325000750319 7.680425514865044 4 5 -6
2250 1 -0.001773338298415798 -16.274412837997378 -14.633114417277218 3.593384141763593 2 6 -2
2722 1 -0.01293881654520342 -13.071406678811547 -16.384329622336164 4.627322180575618 2 6 -3
2778 2 0.0150503943627894 -13.090901693458463 -15.30951153340749 4.897713462705567 2 6 -3
2258 1 0.0135126475328914 -15.873623695263026 -14.944199581575013 2.2088719332151703 2 6 -2
2264 2 0.0201743358275916 -11.443783582117192 -15.459922682013547 5.847315424139665 2 6 -3
2318 2 0.01607006379057842 -14.042759142961888 -8.935018337909785 2.3890749311514763 4 5 -6
2389 1 -0.02335356802805486 -13.016545367768693 -8.967550194495045 2.906823756949162 4 5 -6
1687 1 -0.006029508060782056 -8.108086204673553 -9.159299634639387 1.0378170969569722 3 5 -6
1685 1 -0.03772862870255993 -8.332957934670961 -10.51168154325389 0.3331409923760891 2 6 -2
2901 2 0.01746601848467704 -7.799550244612657 -8.610642045476954 6.504909681045089 4 5 -6
1710 1 0.001405061880445698 -0.05222460411177917 -16.5099095342146 1.584271710359753 1 6 -3
1700 2 0.01853332954012257 -4.330549260753942 -9.924381384349015 0.2944926879119857 1 6 -4
2285 2 0.02110057390263211 -0.7795449967074274 -9.08193872173488 2.4641336777564327 1 6 -4
2200 2 0.0122535906407481 -7.46076510869907 -11.236786739795814 0.31032934231666737 2 6 -2
2204 1 -0.01994022607919777 -7.0489131741210205 -9.19243126532486 2.059722622897398 3 5 -6
2790 2 0.02952838195509354 -1.5337238027530873 -12.738893806060196 7.950512528509592 2 6 -2
1693 2 0.01702340320089201 -6.103162586417362 -12.002390314023225 3.2048843754730627 1 6 -4
1702 3 -0.4367727927583629 -2.50349254854975 -13.40443251241333 1.4498369870719825 1 6 -4
1706 2 0.06595255957378604 -2.4063826272121345 -15.316717027107686 0.9248807967603776 1 6 -4
1765 1 0.03680266481979382 -2.3566586410410832 -10.195769868605003 1.2343330319371755 1 6 -4
1763 1 -0.02387033408875331 -3.86053772533423 -10.230748526356171 1.2089645104314017 1 6 -4
2838 2 0.02050645152015898 -6.1658971951873385 -10.56029282245998 4.593149848215357 2 6 -2
2866 2 0.05690121046120485 -6.959682750901287 -10.370162264726599 6.869369290194487 4 5 -7
2781 2 0.01629028196660948 -6.2630564334527055 -16.639448765843994 7.5192902176130145 2 6 -2
1701 1 0.2365427061881049 -3.5874344191162177 -14.033673004670392 2.1829198883463232 1 6 -4
2837 1 -0.08397747599698335 -7.90391590047998 -16.102567591401773 8.114575416210464 2 6 -3
2801 1 -0.023052805211532 -5.835542055995464 -10.399269502335288 6.621058348417165 1 6 -4
2280 2 0.02108184641499767 -1.1523519103150113 -9.391529473036227 5.541669544229029 1 6 -4
2780 1 0.0134452351463247 -6.505361337504151 -15.836208926680618 8.069624756804885 2 6 -2
1635 1 -0.008502957998589418 -3.8203943255628556 -15.385339362617218 4.293560707148077 1 6 -4
1698 1 -0.0199106222343356 -5.544986508214367 -13.873320332082365 3.927177258964762 1 6 -4
2150 2 0.02050025586514465 -5.904654673237089 -15.567139161053404 5.318236131221999 1 6 -4
1696 1 0.02888257380143493 -4.360371803783447 -10.89067447602963 2.301998741252804 1 6 -4
2798 1 0.006320457173595969 -4.648083532662493 -10.048826691982695 7.467859205802544 1 6 -4
1708 1 0.02317233263217798 -0.8820673705427843 -15.972959303896188 2.395107010293103 1 6 -3
2281 1 -0.0387192273763289 -1.9791588688849795 -9.204365086447288 4.876876962076333 1 6 -4
1703 1 -0.04005728414420548 -3.2478993275991845 -15.128210749204596 2.9828343961826 1 6 -4
1699 1 -0.03923809791277227 -4.853208497985921 -13.324121938961856 2.631249924569154 1 6 -4
2283 1 0.003984770557204514 -3.177009982699716 -9.527431551118854 5.471473657653451 1 6 -4
1695 2 0.01917386756065902 -5.662725762668818 -12.142685743395601 1.144009808441506 1 6 -4
1694 1 -0.02065198616595778 -5.384345107787327 -11.978337377593151 2.3121842997220203 1 6 -4
1640 2 0.01210336320518149 -3.008994661675387 -16.715364258498994 1.8846181288821042 1 6 -4
2282 1 0.01263197277744172 -2.3580343542963624 -9.679084159034728 3.4337952334710073 1 6 -4
1636 2 0.0563994475897616 -3.316402841791003 -15.970461349158438 5.108278647331077 1 6 -4
2214 1 -0.003331254333375827 -4.129716735703052 -9.935977606999659 4.66526214167293 1 6 -4
2212 1 0.001819009086031019 -3.5933852855180133 -10.293497918737426 3.3218849056334663 1 6 -4
2210 2 0.02081483544108048 -6.443777026119039 -13.54821264308053 4.296152788103906 1 6 -4
2219 2 0.0553035622618591 -1.122101336362785 -14.833496730373236 3.9697645940460258 1 6 -3
2799 1 -0.01429007505807661 -5.429067025900821 -10.266755823454089 5.317925437542083 1 6 -4
2794 1 -0.01708997202164095 -3.248088186844826 -9.651186205251454 7.013293409923988 1 6 -4
1707 1 0.05703430593121582 -0.39547716089797563 -15.457356676909724 3.4757254521233785 1 6 -3
2202 2 0.02032320245568384 -6.682625440280434 -10.020846405553959 2.2908976729387054 3 5 -6
2151 1 -0.02396833931012232 -5.2235488935368 -15.098739583852955 4.697982836819988 1 6 -4
2284 1 -0.02123463100154586 -1.6959784142517065 -9.662375531990508 2.4023851796752638 1 6 -4
1705 1 -0.0153571051439078 -2.274447628565608 -15.870598351261723 1.966914940133807 1 6 -4
3904 1 -0.09876241759103516 -11.029946425594035 -11.876269704270216 14.746554613075602 1 6 -4
3906 1 0.1697705824355515 -9.872708654820848 -12.792504717111727 14.175844618313208 1 6 -4
3908 1 -0.03036587877637106 -10.241561922350543 -13.981045399169634 14.652618158888913 1 6 -4
3979 1 0.01377459719845388 -11.933795247264433 -12.520641739611136 15.663044633939869 1 6 -4
3980 2 0.03223471260211912 -12.679705951004824 -13.250047796059055 15.150800597063812 1 6 -4
3320 1 -0.02927378867618965 -9.868121190763961 -15.521606723401522 14.997001317495467 1 6 -4
3382 2 0.02294487023518169 -10.131853089566144 -16.381139698773467 14.299874461563668 1 6 -4
3907 1 0.32386027849959 -11.103103867886452 -10.710697702011132 14.109443931054384 1 6 -4
3381 1 -0.009647445061529196 -10.934360143766737 -15.310961999840597 16.088112090091897 5 6 -7
3432 2 0.06438847641941098 -14.442211515160363 -10.047658643136618 11.248311212234531 4 4 -6
2769 3 -0.360486597474278 -11.959817254171568 -11.766363410463807 10.7596612882307 2 6 -3
2774 1 0.2163782010518555 -12.56436462576404 -12.913632767489641 10.000507606004367 2 6 -3
3318 1 -0.0140805148245092 -12.169684898144492 -16.076851526120883 15.673616281484204 5 6 -7
3426 3 -0.7463060773578197 -16.234210380615043 -11.854903218933329 11.831267780798784 4 4 -6
3321 2 0.02200436314331934 -8.905031393853209 -15.617396361587103 15.294769916534342 1 6 -4
2772 1 0.02447061222783238 -13.64118843178847 -12.416818036461397 9.972629216462142 2 6 -3
2710 2 0.05253047889066868 -15.15419153097103 -15.29130424863568 9.952673048724247 2 6 -3
3431 1 0.005664093160170195 -14.791767055477735 -8.8558082743567 11.212928222503145 4 4 -6
2826 1 -0.01831834595227427 -14.52954298999676 -14.209196801236171 8.55660135782075 2 6 -3
3899 1 0.2455339771613926 -13.07192465929204 -10.291378614031078 15.51979329872147 1 6 -4
2708 1 -0.01640806542127963 -15.385472525586687 -16.19471228460579 9.789409729626817 2 6 -3
3429 2 0.4175093740419693 -15.965636274924618 -11.672947840420058 12.42387598984655 4 4 -6
3977 1 -0.06549152195705885 -13.247197044948752 -11.671427105730801 15.869738960660154 1 6 -4
3379 2 0.03937184300980859 -12.168894216195772 -16.529504790623882 14.68210852354032 5 6 -7
2829 1 -0.009732946405634907 -12.0085911986661 -14.286291600589172 9.541070670385066 2 6 -3
198 3 -0.4697529447990044 -8.911527671100183 -12.368812776679825 12.741620079005704 1 6 -4
3856 1 0.3023286323539928 -8.804868142725383 -10.9975460507418 12.899818367229182 1 6 -4
2709 2 0.01219358323495098 -14.957483540800045 -16.42204912761299 8.891310999050527 2 6 -3
3901 3 -0.5088832437433527 -12.050770030122248 -9.681446752170059 14.558692893076454 1 6 -4
3370 1 -0.03838429549881396 -8.594895297121052 -9.318415490287533 9.903230531076266 4 5 -6
3855 1 -0.09719880551983068 -9.798423247908161 -10.249055472379284 13.58882803719308 1 6 -4
3505 1 -0.02779733290003473 -12.42489660177154 -9.186412661492035 8.81723944120011 4 4 -6
2831 1 -0.0004688367880984097 -10.677900845456136 -14.980720405686059 9.997382904635906 2 6 -3
2326 2 0.1278225778107556 -10.107929342478585 -14.334339582915147 10.67809847783288 2 6 -3
3312 1 0.006280482887663974 -14.753547920099338 -15.417686359370578 15.304478236732367 5 6 -7
3500 2 0.09937486496299534 -12.075249274491942 -10.05572613644032 9.604826284148267 4 4 -6
3438 1 0.3307008809522121 -9.047295424237772 -9.930947809201651 8.451593957735955 4 5 -6
3427 1 -0.1105017305393027 -16.33771094108682 -9.24945846087922 11.127007021703703 4 4 -6
3315 2 0.04733040805927729 -14.81803994237522 -14.320388881966522 14.924380858828245 5 6 -7
3860 1 -0.005257294271129549 -8.370618919586622 -8.64834233509843 12.52662391048526 1 6 -4
3897 1 -0.01635902301196166 -14.058473777411587 -9.441246854489343 16.233005785795015 1 6 -4
3316 1 -0.03193816411359147 -13.511120793246466 -15.6414048029754 16.2409746328334 5 6 -7
2833 1 -0.02758374947042593 -9.921616495010852 -15.451407890957595 8.777916964227389 2 6 -3
2835 1 0.2844261428514818 -8.543567588914723 -15.117470368409052 8.75394701355175 2 6 -3
3433 2 0.03782164670523359 -14.844420733420998 -8.673864281345598 12.311933742330579 4 4 -6
2827 1 -0.0193355741147921 -13.271000566580303 -14.593084546744388 8.875446617199918 2 6 -3
3311 1 -0.04275183558280626 -15.937456378003914 -15.360851652232345 16.44720312654482 5 6 -7
2832 2 0.01558633139520222 -11.244998180416498 -16.004155407893915 10.45274491666289 2 6 -3
3857 1 0.03830126336857435 -9.692798182548259 -8.96173560769561 13.048533639979876 1 6 -4
2770 1 0.05144011457466522 -14.862390010924573 -12.95861646706375 9.42846914183502 2 6 -3
3313 2 0.04901008491018075 -15.468817293409648 -16.416243649781368 15.089665942321908 5 6 -7
3978 2 0.009483050887488152 -11.160412250188486 -13.155755735393747 16.31643652870611 1 6 -4
1800 1 -0.01334661283381828 -15.51486896090131 -12.271860629854832 8.419045233558306 2 6 -2
2322 2 0.03265709061718627 -15.208892020884639 -11.30987131525422 8.7323785035088 2 6 -2
3189 1 -0.007539236924075626 -5.944565383858002 -15.270036962189328 14.607701342412483 2 6 -2
3806 1 0.0007414389234450137 -3.532739893113323 -14.642265133077007 16.525086584719876 6 6 -6
197 1 -0.05063478566397557 -8.024109726586484 -10.001287845565978 12.168775950742159 1 6 -4
3329 2 0.02178589070027107 -5.4264319824748775 -8.554357472914907 13.229758815011174 6 6 -6
2797 1 -0.04406211040720773 -4.810743004406915 -10.970163825147978 8.614693367575342 1 6 -4
3251 1 -0.03409678599752727 -6.957895073641163 -14.53138412894448 12.582227069080474 2 6 -2
2800 2 0.04504691385829093 -5.8549600255504295 -11.433549810327527 8.505286001035815 1 6 -4
2788 2 0.09482781829657985 -1.3260944939154604 -14.478848627511612 8.797006687634418 2 6 -2
3253 2 0.1104554596851827 -7.202512743071344 -13.49378832482012 12.320451341624539 2 6 -2
2725 1 0.2379896116424237 -6.631308911851506 -14.318932388248466 10.064891574903974 2 6 -2
2855 2 0.02211340871215298 -4.159508176892316 -11.827809925392891 8.791948701222186 1 6 -4
2727 2 0.2391058459716202 -2.2948719501367303 -16.02744994079416 11.086098540955819 2 6 -2
3254 1 0.007133768288246009 -5.896935303182995 -14.373198322054902 13.584625321269577 2 6 -2
2670 1 -0.03145673770449716 -2.0538101765144847 -15.020733630878933 13.34898761746871 2 6 -2
2665 1 -0.004973262216823642 -3.6187158346008084 -15.400743966476488 15.309724791036505 2 6 -2
2740 2 0.02065966466061203 -5.065507429259158 -10.818562542151621 11.379996672671329 6 6 -6
2789 1 -0.03289964666061657 -1.9145888298661926 -13.526745498567282 8.52352021827345 2 6 -2
2783 1 0.007070430741669229 -4.4927185547077 -14.420905155698891 8.784841837254742 2 6 -2
2834 3 -0.4945786775792839 -8.149826013868172 -14.291876617880707 9.875299203342859 2 6 -3
2728 3 -0.5536607243631541 -1.4242239684199844 -15.76693981603228 10.605164197132618 2 6 -2