LAMMPS data file via write_data, version 2 Aug 2023, timestep = 2370000, units = real

2692 atoms
3 atom types

-16.71546325737322 16.71546325737322 xlo xhi
-16.71546325737322 16.71546325737322 ylo yhi
-16.71546325737322 16.71546325737322 zlo zhi

Masses

1 12
2 1.008
3 15.999

Atoms # charge

3317 3 -0.472777914362039 -12.983377119375358 -10.230833717238772 -9.576649889867928 5 6 -6
3311 1 -0.04310923238331964 -15.414149696447838 -9.795314639283138 -10.265581333045088 5 6 -6
3852 2 0.0419220568118483 -10.558975976361351 -8.617614956961642 -8.409747656660466 5 6 -6
3312 1 -0.01647511867198777 -15.022984678034778 -8.417983728277251 -11.20361908934748 5 6 -6
3308 1 -0.03946000604543851 -14.780859418723693 -11.688582910378365 -8.713202322872888 5 6 -6
3309 1 0.2304327753742398 -14.48673602869831 -10.573357473617403 -9.586458231488873 5 6 -6
2776 1 -0.01184807918148771 -16.55977879830055 -10.552953764230319 -10.505781594262057 5 6 -6
2654 1 0.0108156681544367 -10.203520500081469 -13.748433891637307 -13.592392903544804 3 6 -5
3768 1 -0.000881117993411222 -16.57587019775004 -15.251640063612733 -12.13301794801113 3 5 -6
3181 1 0.001762932797510944 -9.893786750684834 -14.964347384602636 -11.334644053502972 3 6 -5
3168 2 0.03688396910847488 -14.028832196105737 -14.955079101737693 -10.772152813048688 4 6 -5
3242 1 0.002058656886163822 -11.13484720714673 -14.768839158459278 -9.015852410692558 3 6 -5
3307 1 -0.00424446285992338 -15.916884263736659 -12.572107319051828 -9.083063794878095 5 6 -6
2656 1 0.002429935458446806 -10.562320327250925 -14.847169368155228 -12.574519392059447 3 6 -5
2653 1 -0.01714400880062441 -10.39296115190524 -13.166391700888484 -15.062552365058972 3 6 -5
3770 1 0.2363390664556561 -16.15857906257438 -15.255778462473888 -14.215957987311452 2 6 -2
3694 1 -0.01452619002120525 -14.707205627376855 -16.524566091808353 -10.019071983529493 4 6 -5
2658 1 0.001011090514868161 -11.502251795705744 -15.715090091296092 -13.180907002926899 3 6 -5
3169 1 -0.06228089434625167 -14.208568443206245 -15.76686390338731 -11.34079392490554 4 6 -5
3165 1 0.184743017013789 -15.302662302700545 -16.121772824355965 -12.22507154617213 4 6 -5
3243 1 0.0009323072271900795 -10.29208009978021 -15.310299718406423 -10.051222685012341 3 6 -5
3245 1 0.0008293201383752467 -9.069854416462006 -15.340219079673957 -9.177149928353474 3 6 -5
3619 3 -0.4748053547765765 -14.924128078937725 -16.10339691697841 -13.813214179532917 4 6 -5
2655 1 -0.007419358991553431 -11.600270447931486 -14.046875205032759 -15.452742811606834 3 6 -5
2716 1 -0.0004872566848999373 -8.438875634069614 -14.41292815557767 -11.313326805266396 3 6 -5
47 1 0.004920127201220644 -15.556995648655752 -16.11476178144891 -8.955706959386275 4 6 -5
2719 1 -0.00183558833403457 -8.862797385965226 -13.287008794080036 -13.344767078741503 3 6 -5
2651 2 0.02706503325299717 -9.763032257616542 -12.371920539014186 -15.602358776681008 3 6 -5
2657 1 0.002996434613493344 -11.589731369227685 -15.508714098884193 -15.552348576740433 3 6 -5
3692 1 0.01568189334113137 -16.197115252914397 -14.735250173542578 -9.408909797535124 3 5 -6
3118 1 0.04029213988652509 -12.16019638861714 -16.43012140353519 -14.310851060980708 3 6 -5
3622 2 0.04453870425768983 -13.238289067896751 -16.292911236546047 -11.650286395602079 4 6 -5
3313 2 0.02118734747700326 -15.49576089501124 -8.545095909626774 -12.155102001791036 5 6 -6
3235 1 -0.0700334282035073 -16.16787101240566 -14.450889185988569 -15.504539275998988 2 6 -2
3316 1 -0.03043842939774885 -13.511467724363575 -8.477857530891274 -11.473404334015472 5 6 -6
3113 2 0.02372247626033954 -12.481575965950599 -13.633175469320587 -15.988445144877467 3 6 -5
3319 1 0.2195209708636378 -12.792701477834783 -8.834852497186409 -10.268381180763779 5 6 -6
3850 2 0.02614372350495417 -8.48160347395528 -9.896006569757855 -8.444623137300475 5 6 -6
3237 2 0.04832338050067433 -14.312676203893815 -15.33923280092888 -16.174472244491703 2 6 -2
3233 1 0.006670449343768151 -15.131131664435175 -14.799297606310061 -16.322025810201342 2 6 -2
3098 1 -0.01328842546103063 -11.906952354413246 -16.440336390448255 -16.67238862248945 2 6 -2
459 2 0.02002670412862029 -1.7378402494564287 -10.07944802560164 -8.750465585397768 2 6 -5
3194 1 -0.007586243118124471 -8.241272097911093 -16.100105845972205 -8.474154769897844 4 5 -6
3258 2 0.02433235254415886 -4.196494501097629 -10.472832611653573 -15.868762820214256 2 6 -1
2717 1 5.011162972655414e-06 -8.130655540571924 -14.694096504829032 -10.142492877570632 3 6 -5
3196 2 0.01986191401820014 -1.7498513617612454 -12.190759923182874 -9.407668997710886 4 5 -6
3152 2 0.01857472386496045 -0.20588425066292243 -15.740654250889333 -15.482864801928196 3 6 -6
3791 1 -0.02211771628071338 -8.082298449912193 -9.113367397096274 -8.988260951420799 5 6 -6
3719 1 -0.01392685177385436 -2.782497228184313 -12.023747039804787 -9.253400254408406 4 5 -6
3808 1 -0.004521745045347469 -0.0934083145036274 -9.110187445296557 -9.327893310664109 6 6 -5
3716 1 -0.01156370400207945 -2.699880267345678 -10.640516156629273 -8.781652812603905 4 5 -6
2720 1 -0.0006680626556721733 -7.86533629388819 -13.52684930385029 -12.30300998707814 3 6 -5
2735 1 0.001484968331543067 -0.3928299830547033 -8.916144757355424 -15.576609529850455 2 6 -1
3795 1 0.00259157154125058 -7.04640172180774 -9.134058222526564 -9.551594668927306 5 6 -6
2671 2 0.02332487218391311 -0.49663290245470065 -11.629640417661088 -14.06131448144052 2 6 -1
3807 1 -0.02154349416021506 -3.0595425164516135 -8.46397372403463 -11.083299343103533 6 6 -5
3798 1 -0.03879362006940866 -6.114045674834608 -10.604025738929895 -9.707347864944467 5 6 -6
2665 1 -0.008365325138679429 -2.903544636943379 -12.121156569304786 -12.067283208224541 2 6 -1
2661 1 0.0007058580830683267 -6.062607966857241 -13.798666381256409 -10.911097965961389 3 6 -5
3248 2 0.02096451788439983 -6.851575684791708 -14.24566954401463 -8.809578270575825 3 6 -5
3251 1 -0.02341180029640197 -5.623013565134661 -12.758943502228327 -15.6494013198125 2 6 -1
3806 1 0.0009422659626878022 -2.1479059951555812 -11.131326532932984 -11.331859687361943 6 6 -5
3797 2 0.02600509631456679 -6.880094540075694 -11.276002179514872 -9.510206394781353 5 6 -6
3190 2 0.02130779295800941 -3.2770999614860195 -15.436601510733528 -9.994586673106971 2 6 -1
2659 1 -0.00332716082561265 -6.415412385787205 -13.385610678316455 -12.274420941220008 3 6 -5
456 1 -0.0228970793230187 -2.8794409666500145 -15.974554356329024 -9.135566902908264 2 6 -5
3250 2 0.0582550597589603 -5.98352135116851 -13.670740466330185 -15.90277652076153 2 6 -1
2669 2 0.01983507621082633 -1.355323323418067 -12.73697557545172 -15.069930824152468 2 6 -1
3247 1 -0.01663512410748008 -6.70005515738214 -14.751716086116373 -9.819210036528242 3 6 -5
3188 1 -0.00304598920973348 -4.8072884278997 -13.071755912223486 -10.596257097698356 2 6 -1
3801 2 0.02162885187777546 -5.76056781786048 -10.395610103827826 -10.92121505077944 5 6 -6
3805 1 0.0008981350033895989 -2.5390073502353325 -9.72069440498675 -11.17385825706884 6 6 -5
3189 1 -0.00185872431281273 -5.342722570502971 -12.930630318558633 -13.090684824169443 2 6 -1
2732 1 0.003872215727273472 -2.035359178533887 -10.930373422557459 -15.830581442325872 2 6 -1
3129 1 -0.001049650447204745 -6.386317868937758 -16.11831028122925 -10.20935514947858 4 5 -6
3253 2 0.03762739694576613 -6.204385280172411 -11.823635648708619 -15.908962656910179 2 6 -1
2670 1 -0.03261921365659345 -1.5605708302616481 -11.775143755036385 -14.600004872464297 2 6 -1
3796 2 0.01460346890719701 -5.679420725746877 -8.39429145583926 -10.646931968930597 5 6 -6
3254 1 -0.001907091043079762 -5.069789764417376 -12.35465250321664 -14.275560728600565 2 6 -1
3256 1 0.004872373782323764 -3.6199730013615583 -12.165593490425312 -14.490916478725042 2 6 -1
2736 2 0.02296711396034989 -2.5796158315352726 -8.844950973550219 -14.908179810866962 2 6 -1
2726 1 -0.02311413657337332 -3.8185843274137103 -11.463205450171117 -15.867989169843208 2 6 -1
2667 1 -0.001814205696893941 -2.7463478770389065 -11.71616350939971 -13.436779993970442 2 6 -1
3726 1 -0.02330129986710121 -0.9416482747422465 -11.697599348947428 -11.13485485923475 0 7 -2
3191 1 -0.001712275036104247 -4.2008214405708895 -12.837111599441531 -11.993620525523445 2 6 -1
2734 1 -0.02483807443679063 -1.8299962803297423 -9.451123904438347 -15.254618568867318 2 6 -1
3187 2 0.0199459003109151 -1.0086177995812382 -12.591362575459103 -11.713379796074154 2 6 -1
3715 1 -0.01568861073462469 -3.904862921480457 -9.752221487405578 -8.816812309310972 4 5 -6
3717 1 0.005830568762939387 -5.0252640697772755 -10.645374043163681 -8.709420386085336 4 5 -6
3193 2 0.01990332122308999 -4.126853298343934 -9.019096518177399 -9.612006222760467 4 5 -6
3721 1 0.007252104234067414 -3.7139418781308855 -12.77604613378989 -8.39049293257688 4 5 -6
1812 1 -0.0730927330297272 -9.139085029674218 -14.050258320630599 -0.646988025400552 2 6 -2
186 2 0.03193553107430775 -10.907498659563359 -12.237859182392345 -2.3449415701554064 4 6 -5
183 1 -0.006567611641904329 -10.351885727716754 -11.38246518355286 -2.944182430334992 4 6 -5
3844 1 -0.007592972504294707 -12.610311265471173 -12.03215745259441 -3.8787405215530737 4 6 -5
256 1 0.3366388771944318 -10.65561172811424 -9.001700130833658 -3.581493003869514 4 6 -5
124 1 -0.001251528713768327 -10.50416556308721 -14.911672259919158 -4.77819422161932 5 6 -6
3847 1 -0.05799417269501154 -11.116308998617242 -10.353749962308015 -3.369303507145055 4 6 -5
3848 1 0.02379776495307901 -12.470657414765174 -10.675614966807576 -3.5246640405407472 4 6 -5
68 1 -0.0008880016405987158 -11.636081770371511 -14.079165327064615 -5.359467603796155 5 6 -6
3841 1 -0.02616214691674604 -12.526644595780995 -13.342856322993391 -4.426541050271755 4 6 -5
3842 2 0.02781125976503736 -12.824207114636838 -14.001783404248139 -3.8151124537570564 4 6 -5
1811 1 0.2610038811871084 -10.058700298432434 -14.936754165574635 -0.36357631964917286 2 6 -2
3849 2 0.05082578792736163 -12.793536183188467 -10.086079202478405 -4.37334932332405 4 6 -5
127 1 -0.02347067457277371 -12.336896298428478 -13.725006623622642 -6.649735738426601 5 6 -6
3839 1 -0.01082639845110877 -12.461077833332453 -12.245175834679943 -7.26249896362233 4 6 -5
72 1 -0.02027481693906897 -9.462337724816994 -14.969963228367957 -5.777488394050407 5 6 -6
3304 2 0.04492176447612648 -11.708648964933396 -11.529185227403751 -6.933783649306223 5 6 -6
185 1 0.0005016339173127132 -8.729438535852648 -14.150859695226927 -2.2505668919752586 5 6 -6
3303 2 0.0148621416604159 -13.43175897888721 -13.699145389484341 -6.6029693621209855 5 6 -6
255 1 -0.05262516103443621 -9.075072190959412 -8.916809908247474 -4.125440449854488 4 6 -5
184 1 0.001217447659701972 -9.263635464710271 -11.500667011172068 -3.9000628066291645 4 6 -5
73 2 0.0186010873005479 -8.803638451770352 -14.26518387409921 -6.402882660771035 5 6 -6
121 1 0.0004653931842824935 -10.22809786711176 -15.953431905236938 -3.698405106553704 5 6 -6
625 1 -0.04894645696771775 -9.945050259234486 -16.083050081270418 -1.2522106532353363 5 6 -6
120 1 -0.00257457902969532 -9.377180673524549 -15.48976705059961 -2.483952363750244 5 6 -6
189 1 -0.003152587220218134 -8.484518609964642 -13.233433314308558 -3.079208326547776 5 6 -6
258 1 -0.01626755158875206 -8.513353861153968 -10.172473364411191 -4.497567849421156 4 6 -5
1614 2 0.02073953805041569 -15.594020897933564 -10.389460197734543 -0.7567444269198561 4 6 -5
1613 1 -0.01298844053678766 -16.13171672078824 -9.670530310532959 -0.04803599233150101 4 6 -5
1676 1 -0.007167162024772022 -16.695612033732385 -8.47381207546798 -0.4907375417002388 4 6 -5
69 1 -0.00693567681688163 -9.540122717726764 -16.159625633335196 -6.479600431060843 5 6 -6
3306 1 0.05854251941417116 -13.599008076241473 -12.06574964503609 -7.883722151419466 5 6 -6
48 1 0.006805526692904823 -16.229429289359718 -15.965141772407465 -6.387432061534603 4 6 -5
188 1 -0.02575180361884457 -8.387042918901845 -12.469864576950078 -4.190184409284108 5 6 -6
3240 1 0.00612083365213829 -11.602361072265806 -14.126093120118261 -8.077850340060968 3 6 -5
3840 1 -0.007061817771151287 -16.56261688620593 -13.705951755524358 -8.289036051479442 4 6 -5
3727 1 -0.02432130011240076 -2.4307210932983145 -12.592887021156388 -3.334478295865971 4 5 -6
455 1 -0.00215290020452083 -3.0846454203263436 -16.41422324859587 -6.799790681808528 2 6 -5
631 2 0.01070511098263663 -4.666806905157297 -12.684974813001972 -1.0344989189344287 2 6 -3
694 1 -0.001244331580176443 -3.5819723497710143 -9.717158244352857 -3.18429359054504 2 6 -3
15 2 0.01313283896329646 -2.90920410183232 -16.114062561755063 -1.935802658653319 2 5 -4
632 1 -0.005546749368667843 -3.858928180865402 -12.380858901809367 -0.3580312906874553 2 6 -3
11 1 -0.0003527784606612537 -3.0500126804091896 -13.844804577077063 -7.655432683347168 2 6 -5
3723 1 0.004104261114708577 -2.7995980250116785 -11.946074975082723 -4.531337953985178 4 5 -6
693 1 -0.03823908536790289 -3.256666390132464 -10.289920744227535 -1.8796565715554125 2 6 -3
3718 1 -0.002810032784678503 -4.616553293199798 -11.792872503141131 -7.77538913635695 4 5 -6
79 1 0.0005204247476161411 -3.98577271301246 -11.464970416704126 -6.605117051548957 4 5 -6
1242 2 0.009535423968338426 -1.0036598161008965 -13.711835489928257 -1.0973394710406275 2 6 -3
259 2 0.01550038419109686 -7.403066135315559 -10.102008842574017 -4.830440331518276 4 6 -5
6 1 0.006063277122085906 -4.312958233862768 -16.616312107114698 -5.790722670411116 2 6 -5
187 2 0.01770334954188849 -7.67058574483765 -11.987120171423191 -4.777459502497471 5 6 -6
77 1 0.002828972521647294 -3.2701980330212423 -12.521835008485978 -5.872295781348565 4 5 -6
8 1 -0.0005830293012033111 -2.8744837083634027 -15.353401496914614 -7.814040047579036 2 6 -5
690 1 0.02954656709655777 -2.678532177503017 -11.702340168230364 -2.1714339022287943 2 6 -3
82 1 -0.005325291882325188 -4.123580090293842 -10.158099038784103 -5.588636792450466 4 5 -6
83 1 0.001763674992603818 -3.622288357633073 -10.578181748429007 -4.400909247190542 4 5 -6
633 1 0.009192157930955642 -2.554574373356274 -12.622241514875126 -0.9434851805940412 2 6 -3
692 2 0.01139526235378251 -1.8050721490817871 -13.728771400606405 -3.0528055800700447 2 6 -3
7 1 -0.02531198633532643 -4.442495415405807 -15.913407543182576 -4.438806922680865 2 6 -5
1241 1 -0.004595003790036717 -1.099263667380367 -12.565304164420022 -0.5884821833505408 2 6 -3
517 2 0.01870525807225118 -5.051325993245521 -15.058172376643556 -4.146678438493218 2 6 -5
76 1 -0.02002521840579303 -2.5383315807784226 -13.652786598777723 -6.303448522036482 4 5 -6
74 2 0.02079127470589815 -2.0480579503579035 -14.389145369090459 -5.672955204836114 4 5 -6
695 1 0.2493664307868207 -2.783863805312373 -9.389036890550761 -0.8768457953796415 2 6 -3
2258 1 -0.01309701838010527 -12.670233703206025 -12.486334551878628 6.695629129470673 2 6 -2
1745 1 -0.009603901565965994 -13.063843906756658 -14.375397001540598 4.6868800996668165 2 6 -2
1746 1 -0.004873169101161711 -13.350882406597531 -13.769415311690633 5.978247186653286 2 6 -2
1744 1 -0.001316613417218452 -14.700597849244575 -13.999396915957877 6.374772995147643 2 6 -2
1808 1 -0.0295007951283783 -11.278774589443401 -14.233704174365286 3.0259042556511964 2 6 -2
1806 1 0.01411789328477664 -12.027323146807168 -14.448688316029825 3.8809724941237005 2 6 -2
2134 1 0.009093647907428058 -15.413726396129913 -15.056816219889383 5.519144918663664 2 6 -3
1223 1 0.2231116169683828 -10.554886060287886 -14.071738430685206 1.8919253260373043 2 6 -2
1229 2 0.01867597123802879 -9.277701299500873 -12.772220569730363 4.309767372584799 2 6 -2
1228 1 -0.03689653138389642 -9.449791238933413 -12.245372139472666 3.2377412241271175 2 6 -2
1227 1 -0.0573125712367183 -9.47548621953194 -13.196829538519392 1.9024763803450413 2 6 -2
1290 3 -0.4696418088716094 -11.085560647103947 -14.991514387279619 0.7316727088078179 2 6 -3
2135 1 -0.002626434638856497 -14.289461008239718 -15.555710198668974 4.695830025089744 2 6 -3
2133 1 -0.0375544167616147 -16.306430976730113 -16.36639930285455 5.7329413590830915 2 6 -3
1225 2 0.02556222760469427 -10.25368786936321 -11.723448684207638 3.2508427075242805 2 6 -2
1147 2 0.02229558980977101 -15.797460751564756 -11.373035893987632 2.963784227909268 4 6 -5
2256 1 0.008260912235273194 -14.995502073819198 -13.852633386330577 7.834520414602635 2 6 -2
1295 1 0.01409325029363292 -8.738580851266695 -13.29338374231429 0.5475256996675296 2 6 -2
2250 1 -0.002100609029158811 -13.635966991580103 -11.74647616341741 7.594161041991551 2 6 -2
1154 2 0.04207556580575746 -9.44511827310976 -16.232681888057357 3.0986641386536182 2 7 -3
1805 2 0.03658409105312257 -14.641225605252219 -15.377416271939136 2.1502034641562555 2 6 -2
1079 1 -0.02382304193555332 -16.69913168882759 -10.708085663668063 0.760562718472759 4 6 -5
623 2 0.02529014692263819 -16.363361953380135 -11.711871281868545 0.934460689867404 5 6 -6
2316 1 -0.001937119799137136 -13.043357134911188 -10.591258877078884 8.312972695758983 2 6 -2
2193 1 -0.02164891023300658 -14.554192902433677 -16.020216633582034 3.1445385426011763 2 7 -3
2192 2 0.08382463238009041 -12.705085836328559 -16.20563725433356 2.528812015272126 2 7 -3
2322 2 0.02365027168788413 -11.011202997122908 -8.978414537364863 8.172424317560345 2 6 -2
2196 1 0.008859906565104707 -13.276304468456622 -16.673772404657452 3.0572239859115244 2 7 -3
2319 1 -0.001264195607599675 -13.602084522609841 -9.247876050214387 8.23101508605039 2 6 -2
2253 1 0.0002023676983269815 -14.895376980953957 -12.485100689829698 8.11393349289899 2 6 -2
1749 2 0.01156252631560149 -7.7064983299978955 -12.644328657111975 0.3797155577845696 2 6 -2
1111 1 0.02005572918618982 -2.3545278242792285 -13.518893718740916 2.629941267096528 3 5 -6
1112 1 0.01752480858260514 -2.712582274215667 -14.62935576595075 3.3772952358889023 3 5 -6
1168 1 0.02351848060151298 -2.0886752788705136 -12.52340659602053 1.5895526946312528 2 6 -3
1114 1 -0.03672128261618664 -2.2948596519772417 -15.923238745872498 2.671342633938443 3 5 -6
1231 1 0.01133525365216703 -8.263692166306413 -11.46480765684803 2.675484293867471 2 6 -2
1159 1 -0.02557040364200466 -6.943705196794902 -12.142826096918492 2.6677663581178734 2 6 -2
629 2 0.0156975537559874 -5.36629126264274 -13.039387111256127 2.7371100510590107 2 6 -3
1116 1 0.2096779626180657 -1.017748315773585 -16.32376514118645 2.505267418116043 3 5 -6
1247 1 0.2444675594385343 -0.8905977246903307 -9.159277578729574 0.6876125369912929 2 6 -3
1702 3 -0.4149591675335969 -3.515336594158164 -9.426695192751867 7.353263825676141 1 6 -4
1161 1 -0.01999873022451593 -6.195090170928963 -10.286275554182087 1.2640196791475737 2 6 -2
1230 1 -0.008668695122057035 -8.213339588862 -10.233901428162877 2.313913635205812 2 6 -2
1711 2 0.03917870880917851 -1.7371431896344591 -12.379255542307913 7.587979911058239 1 6 -3
1647 2 0.05077887827679964 -3.039916709921607 -14.529899518664868 4.319048956664949 3 5 -6
1712 1 0.01884496510069532 -0.3977956594856337 -10.566300775278423 7.985834916194413 1 6 -3
1683 2 0.03880581984860919 -6.200834364910815 -8.526065278206204 3.0024462616354635 2 6 -2
1245 3 -0.5140086004529306 -2.115873089363226 -10.001099835290868 0.29078923535029566 2 6 -3
1710 1 0.01079324327201108 -1.3161166582919586 -11.486011253211796 8.24912186331805 1 6 -3
1160 2 0.01842477876256083 -7.0231406839467985 -13.090390881996948 3.0606400837284626 2 6 -2
1232 1 0.001698320723666855 -7.362292419985239 -9.438588314866527 1.6159795819628033 2 6 -2
1162 1 0.008260579726617711 -5.86746152270863 -11.53799763291895 1.8815424055646648 2 6 -2
1163 1 -0.005554673025750689 -4.665309673571502 -12.238859866307749 2.079127524407624 2 6 -3
1169 1 0.05856069971132655 -0.9311926064046862 -12.086810221417089 0.7755092268475636 2 6 -3
1087 2 0.03457261740217266 -5.385979784185801 -10.279484686022109 0.5465380214550208 2 6 -2
1165 1 0.02511066400293886 -3.5477102501727846 -12.42500998103269 1.163064671300725 2 6 -3
1243 2 0.04000266138206645 -0.3406312087125667 -11.348779088638407 2.603215551666854 2 6 -3
1054 2 0.01381003045315281 -4.487689325446862 -16.65914878510544 2.0957299532291653 3 5 -6
2770 1 -0.0375367691292008 -10.306961696925136 -9.290040337198468 11.307835997458705 2 6 -3
2826 1 0.01082162652280353 -10.474676895638334 -10.731620995126812 11.342700421583366 2 6 -3
2829 1 -0.0003385956382970581 -8.461050011139271 -11.404693339906174 12.452864200993904 2 6 -3
2248 1 -0.0007214017852399182 -13.918847468351899 -12.793495194217483 12.173878133214163 2 6 -2
2706 1 0.002750591957620247 -11.650221992403658 -13.0116472072852 12.749356473296618 2 6 -3
2247 1 -0.000135339596793068 -14.265991356180443 -12.723085736085842 10.807960611127426 2 6 -2
2827 1 0.0007214263224083195 -9.853127027792365 -11.86405684278862 12.411527093015348 2 6 -3
2702 1 -0.005428802512345895 -12.857046699162206 -13.49425781166387 13.033239448545034 2 6 -3
2649 1 -0.01124066499016148 -10.315036695786738 -13.112752888230425 12.798715460479837 2 6 -3
2251 1 0.004214538954737938 -15.054918110472729 -12.462115637900498 9.807729638353283 2 6 -2
2647 1 -0.0009519138540545688 -10.40545686154852 -14.600367366936931 13.643941965497895 2 6 -3
2701 1 0.0005160475236296116 -14.371321994347545 -11.992136730793346 13.172433401793125 2 6 -3
2705 1 -0.01201600635113428 -13.78760263735817 -12.055839522388544 14.502666194218751 2 6 -3
2643 1 -0.005391414057423639 -11.605683113020497 -14.908459975669217 14.538677532591798 2 6 -3
2645 1 -0.01221952774736976 -13.001230287414117 -14.56739390295432 14.28925753698689 2 6 -3
2710 2 0.02284310651837936 -13.334061439569153 -12.717876089646849 15.062744967332124 2 6 -3
2243 2 0.01374421198595287 -11.551438093304691 -12.305814703348636 10.295104528040852 2 6 -2
2246 1 -0.007323924097602569 -11.515888526932113 -11.136922915491498 10.435720524737558 2 6 -2
2646 1 -0.01462458850790405 -9.37624789109849 -15.52553348349549 13.718984193104081 2 6 -3
2314 1 -0.0007911952126893954 -11.686786266351472 -10.504528718806078 9.091774837576292 2 6 -2
1799 1 -0.02548430651657919 -10.96613308337165 -9.22744928023625 9.08118418678547 2 6 -2
2648 2 0.03041692180085378 -8.386825442364017 -15.455426777294797 13.176786334798777 2 6 -3
3232 1 -0.01278307928734708 -15.251586473281531 -14.740980472220786 15.46656971693593 2 6 -3
3164 2 0.01928302068878862 -12.914225498122207 -16.298779651053373 16.142946796959468 2 6 -3
3166 1 -0.002553062839210158 -14.379607386113861 -15.223824336204874 14.376859801591447 2 6 -3
2130 1 0.06224165767858594 -14.594201352580338 -15.83672490622669 9.366346369705035 2 6 -3
2249 1 -0.01281397262310072 -15.818177114763895 -11.305915940895003 10.451862339961899 2 6 -2
3099 1 -0.005531115306979629 -11.119870015959535 -15.857384799927672 15.58088655941748 2 6 -3
2181 1 0.002185246739663867 -15.711483624355056 -10.98176650060908 11.597474319306281 2 6 -2
1742 1 0.0007115199769705642 -14.762748568518576 -14.985036497077614 8.731419614555094 2 6 -2
2698 1 -0.004784125944007234 -16.504020667302807 -10.721683242292922 13.836853160144225 2 6 -3
2179 2 0.02752233655046173 -16.449438299388756 -11.313909613228004 9.462842443600538 2 6 -2
2126 1 0.2056018869697566 -15.958527535490603 -16.684213953539683 11.400435814947766 2 6 -3
2697 2 0.01853452674006639 -16.21339235442384 -13.401401350878718 13.921217534068157 2 6 -3
2772 1 0.3076428383398431 -9.291561526675235 -8.63941704856594 12.44532956129229 2 6 -3
2703 1 0.0311653887809882 -14.79729994671651 -11.262898191375601 15.179321346897714 2 6 -3
2644 1 0.01085823691848722 -9.865289412900033 -16.221991673281256 14.959692161487942 2 6 -3
2699 1 0.03906518565704348 -15.318686097703395 -10.879649493608223 12.982144944901524 2 6 -3
3955 2 0.02812149920293339 -16.309313241444332 -9.268995633373155 16.668001452830904 4 4 -6
3231 1 -0.007926423782889404 -16.255066756959103 -13.826266883719786 14.993304891720193 2 6 -3
2832 2 0.04066686595852095 -8.589635415035582 -12.932813064690013 13.940795152839026 2 6 -3
2774 1 -0.04982360569284129 -8.565871556073583 -9.94971558324291 12.615271502117638 2 6 -3
2700 1 -0.001526116889359557 -16.311152937056196 -11.145625933658348 15.121069374300228 2 6 -3
2574 1 -0.009355478153242874 -14.798577649711536 -16.111762517725403 13.085185465219347 2 6 -3
2572 1 -0.04824369027812171 -16.146849675746 -16.001183687079543 12.593227408962832 2 6 -3
2127 1 0.005186928835200156 -14.502036336667345 -16.700803331318994 10.714708462362408 2 6 -3
1800 1 0.02216519930477211 -10.410576390783662 -8.466701845556779 10.117474344956033 2 6 -2
2608 2 0.01820771311567802 -0.04343841892086765 -15.939428700018066 11.861972245904552 2 7 -3
2612 2 0.02017860475727099 -1.1146308497011108 -15.463401296006722 14.797239894244361 2 7 -3
1701 1 0.2628613492021667 -4.020264491785303 -8.930581328831229 8.552745368385363 1 6 -4
3059 1 -0.02113735243958054 -1.6837538883465 -16.169667345239336 10.416522407352035 2 7 -3
1706 2 0.04109571966507606 -3.682271217567297 -11.923145148019167 9.0695634278245 1 6 -4
2831 1 -0.00376148719821485 -7.74299745196769 -12.388890252586837 13.300577722264432 2 6 -3
2260 2 0.01739671361420346 -7.310073891831656 -13.36016332816247 10.650725431713504 2 6 -3
2264 2 0.02600413119443793 -6.416799100521979 -14.674144898444393 9.373349779204029 2 6 -3
2326 2 0.06228140087039508 -6.92019873961413 -11.658871328740068 13.879578216138144 2 6 -3
1773 1 -0.01781589795410463 -0.23821501634346362 -9.775824417368877 9.236301072440263 1 6 -3
1707 1 0.02197038121780018 -1.264071875062915 -10.231196201406831 10.255920321437229 1 6 -3
2783 1 0.007550492944422295 -1.6602381342927204 -12.349318875312072 15.510400338566336 2 6 -2
2219 2 0.02539027870159132 -1.615824157677039 -9.661249910457585 11.121360090633374 1 6 -3
2262 1 -0.03018295497324542 -6.59565986462302 -14.000618907906153 11.249573612264685 2 6 -3
2724 2 0.01722323033445288 -2.9007273076671583 -14.351216464455028 11.110381368393698 2 6 -3
2780 1 0.012685665131093 -3.007289491689537 -13.576544154825706 13.698805598254816 2 6 -2
1635 1 -0.01035501173326965 -5.1856918347427845 -9.522915418898114 10.845125953859124 1 6 -4
2779 1 -0.01811299604907673 -4.051190404969226 -13.948165890827733 11.342381682847952 2 6 -3
1636 2 0.01441577547782985 -5.214220585154177 -10.421679193050235 11.685807004684259 1 6 -4
2833 1 -0.03039528793297042 -6.813070643131714 -13.434072683478155 12.535877818877491 2 6 -3
2834 3 -0.481785423845378 -5.7546533713100505 -13.347856024736828 14.774886783880806 2 6 -3
2837 1 -0.04478477609582357 -4.262586743545183 -13.811873075142383 12.77264535001422 2 6 -3
2786 1 -0.01260219281555352 -0.4311431254127627 -12.609266034840829 14.76722557113067 2 6 -2
1703 1 -0.03470920018173695 -4.233114169284956 -9.871101277453624 9.78183895830998 1 6 -4
2781 2 0.01522175848270136 -2.121299430172958 -13.762921452480201 13.596039280781971 2 6 -2
2835 1 0.2288062276496008 -5.593227843440802 -13.735895406425511 13.318261099992878 2 6 -3
2664 2 0.0264175028475966 -7.043412986015951 -16.430654509026255 11.949631833777843 2 6 -3
1705 1 -0.01993702714904039 -3.3977416261143465 -11.222056651586955 9.780597131050229 1 6 -4
3056 2 0.02609758190522547 -1.9160298444565644 -15.410747218482209 9.535380658899294 2 7 -3
2730 1 -0.006465811279462812 -1.3394687682678204 -11.238028532270835 16.261804526137933 2 6 -2
2266 1 -0.03264879689076211 -5.593170620774435 -15.33162820129658 9.407837156546364 2 6 -3
2267 2 0.0572243950582168 -4.966594247475389 -15.40133662540034 8.454511973500072 2 6 -3
2725 1 0.1996550459167206 -4.380959217110614 -12.675274415088479 15.33543500908565 2 6 -2
2265 1 0.0004589355556608304 -5.187647176126808 -14.42365031874942 10.804189546054651 2 6 -3
2782 1 -0.05087934076469902 -3.0215986803621444 -12.807068155875896 14.817994143107361 2 6 -2
1708 1 0.002392097086907782 -1.9310977444223523 -11.263852252410306 9.540569441204305 1 6 -3
1640 2 0.01665285290422313 -3.486335249078989 -11.166020484232712 10.858425369411966 1 6 -4
2609 1 -0.02002704958599268 -0.11165278502503323 -16.0331774415688 15.000279478741453 2 7 -3
2596 1 -0.02164750930255177 -0.8605191421752639 -16.48551549473257 11.58197948006314 2 7 -3
2790 2 0.01932668485392899 -0.44819756532839805 -13.342472250872017 14.010590838937826 2 6 -2
3252 1 -0.01168733457351127 -4.445197460598779 -12.573871275147933 16.641901389509652 2 6 -2
4015 2 0.01725819753848436 -14.973114005939546 -1.9393320996016374 -8.966120793495781 5 5 -5
3974 1 0.008421054819530642 -13.457976465348604 -2.153808385400129 -14.189039409911459 1 6 -3
3899 1 0.2566733868655081 -10.559960824354981 -1.4605258802669834 -11.959608791832421 1 6 -3
3975 1 0.003974023768082487 -12.431869790999368 -2.3618748700626897 -13.395940532671982 1 6 -3
3977 1 -0.06895599979832724 -11.431577336501661 -2.456500481188182 -12.208229321897 1 6 -3
3979 1 0.01012505150360191 -10.897261204964302 -3.887580534359812 -12.299519893741746 1 6 -3
3980 2 0.01269784506001522 -11.908275523414769 -4.159210407661653 -12.279534109793813 1 6 -3
302 1 -0.009764772438723417 -13.96244363710698 -0.08523175337322697 -11.802776455722846 3 5 -6
3904 1 -0.1575448509840024 -9.507902588326713 -3.5461853066308033 -13.198581779741687 1 6 -3
3901 3 -0.5170041716367962 -9.045160392632473 -1.4124159282515392 -11.990538707569764 1 6 -3
3908 1 -0.03329214717570358 -10.76478649277638 -5.260289251451374 -14.047520014583627 1 6 -3
3320 1 0.02196854573934593 -11.650157949370147 -5.829344624711247 -13.84224200656693 1 6 -3
3972 1 -0.04596318936162328 -14.551764254429388 -1.743257574484749 -14.598682081804883 3 5 -6
3973 2 0.06037899986005144 -14.809326322330623 -2.144276996368049 -15.588693843144036 3 5 -6
737 2 0.02841531715458643 -15.161688483822315 -1.2329005577164607 -13.958484710674732 4 5 -6
3381 1 -0.004229946431671572 -12.143565277979786 -6.6096103022925 -12.565455807742307 5 6 -6
3978 2 0.0183964811746628 -10.558948463548417 -4.564986743005254 -11.234727553460264 1 6 -3
3907 1 0.2936895794787363 -8.637183406373968 -2.652543348546595 -12.799342389589693 1 6 -3
3318 1 -0.01951228833754503 -13.225330434890829 -7.310237616806671 -12.507858752960043 5 6 -6